SQS with 1 vacancy for VFE and VRV      
           1
    -3.190000   -3.190000   -3.190000
     1.595000    1.595000   -7.975000
     7.975000   -7.975000   -1.595000
   Nb   Mo   Ta   Ti   W 
   6   6   6   5   6
Direct configuration=     1
   0.96666667  0.93333333  0.40000000
   0.63333333  0.26666667  0.40000000
   0.50000000  0.00000000  0.00000000
   0.00000000  0.00000000  0.00000000
   0.10000000  0.20000000  0.80000000
   0.03333333  0.06666667  0.60000000
   0.90000000  0.80000000  0.20000000
   0.80000000  0.60000000  0.40000000
   0.73333333  0.46666667  0.20000000
   0.66666667  0.33333333  0.00000000
   0.36666667  0.73333333  0.60000000
   0.13333333  0.26666667  0.40000000
   0.83333333  0.66666667  0.00000000
   0.93333333  0.86666667  0.80000000
   0.56666667  0.13333333  0.20000000
   0.40000000  0.80000000  0.20000000
   0.43333333  0.86666667  0.80000000
   0.30000000  0.60000000  0.40000000
   0.86666667  0.73333333  0.60000000
   0.46666667  0.93333333  0.40000000
   0.16666667  0.33333333  0.00000000
   0.20000000  0.40000000  0.60000000
   0.06666667  0.13333333  0.20000000
   0.76666667  0.53333333  0.80000000
   0.70000000  0.40000000  0.60000000
   0.60000000  0.20000000  0.80000000
   0.53333333  0.06666667  0.60000000
   0.33333333  0.66666667  0.00000000
   0.23333333  0.46666667  0.20000000
SQS with 1 vacancy for VFE and VRV      
           1
    -3.163237   -3.155832   -3.162772
     1.545833    1.562296   -7.855524
     7.871479   -7.878340   -1.556014
   Nb   Mo   Ta   Ti   W 
   6   6   6   5   6
Direct configuration=     2
   0.96478118  0.93268229  0.39852104
   0.63211215  0.26619122  0.40094731
   0.49955966  0.00216551 -0.00096362
  -0.00099576  0.00070778  0.00078106
   0.09550420  0.20323358  0.79916887
   0.03601036  0.06711751  0.59869982
   0.90219264  0.79853520  0.20160246
   0.80304182  0.59559346  0.39986579
   0.73351537  0.46705671  0.19878527
   0.66625325  0.33773824 -0.00110726
   0.36966793  0.72879259  0.60173318
   0.13296486  0.27021759  0.39893332
   0.83181427  0.66439265  0.00256611
   0.93472010  0.86197607  0.79953541
   0.56618283  0.13412249  0.19813242
   0.40345536  0.79574422  0.19900623
   0.44004367  0.86203199  0.79754587
   0.30018396  0.60153061  0.40238506
   0.86006480  0.73442773  0.59806109
   0.46578875  0.93257719  0.40220751
   0.16850324  0.33691332 -0.00163840
   0.20018136  0.39873622  0.60147065
   0.06578576  0.13762783  0.20289517
   0.76319606  0.53011334  0.80022595
   0.69884642  0.40557282  0.60183727
   0.59815305  0.20395271  0.79832929
   0.53541198  0.06825051  0.60194128
   0.33544113  0.66061700 -0.00056077
   0.23095295  0.46804826  0.19909260
SQS with 1 vacancy for VFE and VRV      
           1
    -3.170398   -3.164974   -3.170057
     1.558988    1.571046   -7.887492
     7.899178   -7.904203   -1.566445
   Nb   Mo   Ta   Ti   W 
   6   6   6   5   6
Direct configuration=     3
   0.96528965  0.93286017  0.39892222
   0.63244136  0.26631983  0.40069091
   0.49968131  0.00157689 -0.00070307
  -0.00072596  0.00051459  0.00056934
   0.09672251  0.20235381  0.79939373
   0.03528792  0.06699599  0.59905165
   0.90159857  0.79893296  0.20116838
   0.80221477  0.59679283  0.39990302
   0.73346671  0.46695139  0.19911429
   0.66637042  0.33654042 -0.00080843
   0.36885163  0.73002726  0.60126446
   0.13306883  0.26925210  0.39922140
   0.83222166  0.66500954  0.00187162
   0.93433971  0.86325275  0.79966245
   0.56631454  0.13390893  0.19863831
   0.40251683  0.79690317  0.19927628
   0.43822556  0.86329534  0.79821132
   0.30013613  0.60111265  0.40173833
   0.86184930  0.73413046  0.59858700
   0.46602487  0.93278140  0.40160967
   0.16801171  0.33594054 -0.00119570
   0.20013077  0.39907914  0.60107249
   0.06602897  0.13645742  0.20210957
   0.76412941  0.53098890  0.80016608
   0.69916489  0.40405525  0.60133799
   0.59865686  0.20287812  0.79878111
   0.53485249  0.06781857  0.60141455
   0.33486431  0.66226359 -0.00040737
   0.23159760  0.46767267  0.19933839
SQS with 1 vacancy for VFE and VRV      
           1
    -3.193442   -3.182600   -3.193287
     1.541056    1.566020   -7.902270
     7.926386   -7.938088   -1.557829
   Nb   Mo   Ta   Ti   W 
   6   6   6   5   6
Direct configuration=     4
   0.96352457  0.93254489  0.39763257
   0.63147178  0.26593410  0.40138947
   0.49924216  0.00335682 -0.00178969
  -0.00126638  0.00122926  0.00106665
   0.09354582  0.20471623  0.79874127
   0.03774096  0.06733287  0.59802275
   0.90338285  0.79795402  0.20242481
   0.80480903  0.59333909  0.39994421
   0.73370520  0.46685689  0.19829905
   0.66582920  0.33996755 -0.00182403
   0.37088402  0.72587110  0.60295914
   0.13262457  0.27210095  0.39847724
   0.83109587  0.66347225  0.00387823
   0.93721209  0.85793976  0.79919378
   0.56595358  0.13442564  0.19711426
   0.40537303  0.79389831  0.19862594
   0.44294064  0.85958999  0.79643595
   0.30041712  0.60222037  0.40404129
   0.85619845  0.73506451  0.59675246
   0.46538848  0.93212137  0.40353314
   0.17002562  0.33926377 -0.00308108
   0.20025878  0.39845398  0.60272520
   0.06520264  0.14043001  0.20462766
   0.76140225  0.52834421  0.80038338
   0.69788757  0.40851411  0.60280652
   0.59607707  0.20681105  0.79741270
   0.53659990  0.06921258  0.60295537
   0.33595722  0.65699293 -0.00142212
   0.22984923  0.46870806  0.19867388
SQS with 1 vacancy for VFE and VRV      
           1
    -3.203004   -3.189913   -3.202925
     1.533616    1.563935   -7.908402
     7.937675   -7.952147   -1.554255
   Nb   Mo   Ta   Ti   W 
   6   6   6   5   6
Direct configuration=     5
   0.96279759  0.93241339  0.39709919
   0.63107271  0.26577483  0.40167793
   0.49905836  0.00409418 -0.00223826
  -0.00149029  0.00152611  0.00127236
   0.09223270  0.20569591  0.79847195
   0.03875159  0.06747140  0.59759795
   0.90411981  0.79754877  0.20294402
   0.80588385  0.59190644  0.39996043
   0.73380368  0.46681702  0.19796210
   0.66560071  0.34138809 -0.00224271
   0.37172829  0.72414853  0.60365846
   0.13243695  0.27328188  0.39817057
   0.83063418  0.66283647  0.00470691
   0.93840453  0.85573562  0.79899869
   0.56580404  0.13463878  0.19648448
   0.40655514  0.79265124  0.19835654
   0.44489013  0.85805125  0.79570158
   0.30053107  0.60268152  0.40499354
   0.85386784  0.73545126  0.59599375
   0.46512713  0.93184926  0.40432782
   0.17085054  0.34064016 -0.00385893
   0.20031245  0.39819600  0.60340810
   0.06485559  0.14207958  0.20566964
   0.76028234  0.52724802  0.80047193
   0.69735390  0.41036458  0.60341479
   0.59500752  0.20844137  0.79684808
   0.53731787  0.06979164  0.60359292
   0.33641615  0.65480618 -0.00184315
   0.22912695  0.46913719  0.19839933
SQS with 1 vacancy for VFE and VRV      
           1
    -3.206154   -3.194649   -3.206775
     1.538992    1.564016   -7.919544
     7.945620   -7.958683   -1.561511
   Nb   Mo   Ta   Ti   W 
   6   6   6   5   6
Direct configuration=     6
   0.96253558  0.93283890  0.39694977
   0.63116359  0.26588114  0.40159185
   0.49939726  0.00385507 -0.00301581
  -0.00109782  0.00136907  0.00096801
   0.09312332  0.20432631  0.79856082
   0.03905537  0.06741870  0.59779187
   0.90407917  0.79796519  0.20270533
   0.80587505  0.59240315  0.39999323
   0.73355236  0.46634947  0.19851067
   0.66571410  0.34039004 -0.00232822
   0.37040739  0.72415430  0.60383532
   0.13239849  0.27316303  0.39854567
   0.83004960  0.66406516  0.00457203
   0.94079047  0.85350817  0.79901601
   0.56586090  0.13457748  0.19634613
   0.40651716  0.79331321  0.19842690
   0.44368266  0.85858138  0.79626107
   0.30093380  0.60243036  0.40535063
   0.85300869  0.73581663  0.59543396
   0.46521521  0.93186938  0.40462038
   0.17179727  0.34118132 -0.00481188
   0.20024962  0.39869828  0.60408535
   0.06467257  0.14288617  0.20580470
   0.76045875  0.52767711  0.80077855
   0.69730751  0.40918827  0.60315016
   0.59415090  0.20851628  0.79678898
   0.53745110  0.07004578  0.60367486
   0.33510094  0.65508599 -0.00232632
   0.22988233  0.46911132  0.19871998
SQS with 1 vacancy for VFE and VRV      
           1
    -3.209627   -3.199871   -3.211020
     1.544920    1.564105   -7.931829
     7.954380   -7.965889   -1.569512
   Nb   Mo   Ta   Ti   W 
   6   6   6   5   6
Direct configuration=     7
   0.96224714  0.93330750  0.39678504
   0.63126369  0.26599825  0.40149699
   0.49977051  0.00359241 -0.00387226
  -0.00066562  0.00119641  0.00063277
   0.09410382  0.20281835  0.79865912
   0.03938986  0.06736054  0.59800547
   0.90403452  0.79842385  0.20244226
   0.80586545  0.59294999  0.40002917
   0.73327545  0.46583427  0.19911515
   0.66583879  0.33929125 -0.00242206
   0.36895279  0.72416049  0.60403029
   0.13235606  0.27303189  0.39895891
   0.82940609  0.66541805  0.00442306
   0.94341748  0.85105579  0.79903564
   0.56592352  0.13451009  0.19619374
   0.40647545  0.79404199  0.19850417
   0.44235300  0.85916459  0.79687732
   0.30137720  0.60215357  0.40574403
   0.85206272  0.73621931  0.59481728
   0.46531217  0.93189131  0.40494264
   0.17284005  0.34177790 -0.00586192
   0.20018043  0.39925077  0.60483121
   0.06447117  0.14377412  0.20595321
   0.76065306  0.52814931  0.80111613
   0.69725624  0.40789335  0.60285910
   0.59320761  0.20859878  0.79672394
   0.53759784  0.07032552  0.60376501
   0.33365272  0.65539439 -0.00285853
   0.23071413  0.46908263  0.19907311
SQS with 1 vacancy for VFE and VRV      
           1
    -3.205097   -3.196304   -3.206922
     1.545268    1.560390   -7.922268
     7.943508   -7.953485   -1.571372
   Nb   Mo   Ta   Ti   W 
   6   6   6   5   6
Direct configuration=     8
   0.96214143  0.93362614  0.39666889
   0.63132109  0.26604384  0.40149578
   0.50004957  0.00349581 -0.00435201
  -0.00040987  0.00109481  0.00046098
   0.09438598  0.20196195  0.79869581
   0.03955126  0.06727363  0.59814569
   0.90407518  0.79870493  0.20227763
   0.80579723  0.59325561  0.40007514
   0.73310950  0.46571252  0.19942509
   0.66602754  0.33876710 -0.00250300
   0.36803898  0.72410115  0.60420473
   0.13237085  0.27301992  0.39923837
   0.82890977  0.66599664  0.00444078
   0.94501360  0.84923297  0.79897141
   0.56600460  0.13445509  0.19603522
   0.40642917  0.79450226  0.19852778
   0.44186804  0.85942045  0.79716122
   0.30155070  0.60208579  0.40591973
   0.85125380  0.73646666  0.59439425
   0.46536001  0.93193350  0.40517822
   0.17344372  0.34229401 -0.00662337
   0.20006308  0.39960051  0.60540356
   0.06429039  0.14446263  0.20600359
   0.76074037  0.52828263  0.80130010
   0.69733302  0.40721301  0.60279029
   0.59286089  0.20852707  0.79664567
   0.53767820  0.07044692  0.60384801
   0.33295759  0.65555431 -0.00310872
   0.23111765  0.46913484  0.19927918
SQS with 1 vacancy for VFE and VRV      
           1
    -3.198599   -3.191186   -3.201042
     1.545768    1.555059   -7.908551
     7.927909   -7.935690   -1.574042
   Nb   Mo   Ta   Ti   W 
   6   6   6   5   6
Direct configuration=     9
   0.96198961  0.93408395  0.39650190
   0.63140355  0.26610933  0.40149402
   0.50045045  0.00335741 -0.00504130
  -0.00004249  0.00094900  0.00021416
   0.09479123  0.20073175  0.79874881
   0.03978310  0.06714868  0.59834716
   0.90413362  0.79910881  0.20204098
   0.80569927  0.59369458  0.40014109
   0.73287109  0.46553738  0.19987048
   0.66629864  0.33801423 -0.00261913
   0.36672625  0.72401576  0.60445547
   0.13239209  0.27300251  0.39963991
   0.82819685  0.66682775  0.00446608
   0.94730630  0.84661461  0.79887965
   0.56612109  0.13437620  0.19580746
   0.40636275  0.79516342  0.19856152
   0.44117140  0.85978778  0.79756907
   0.30179993  0.60198828  0.40617218
   0.85009178  0.73682227  0.59378641
   0.46542872  0.93199393  0.40551669
   0.17431097  0.34303596 -0.00771769
   0.19989453  0.40010247  0.60622581
   0.06403076  0.14545160  0.20607574
   0.76086581  0.52847400  0.80156437
   0.69744324  0.40623577  0.60269166
   0.59236281  0.20842410  0.79653327
   0.53779363  0.07062126  0.60396722
   0.33195904  0.65578420 -0.00346819
   0.23169734  0.46920970  0.19957522
SQS with 1 vacancy for VFE and VRV      
           1
    -3.198612   -3.191525   -3.201097
     1.546525    1.553757   -7.907974
     7.928629   -7.935474   -1.575810
   Nb   Mo   Ta   Ti   W 
   6   6   6   5   6
Direct configuration=    10
   0.96208115  0.93431842  0.39643892
   0.63142242  0.26607981  0.40159068
   0.50061213  0.00346837 -0.00513378
   0.00009577  0.00094833  0.00019978
   0.09441213  0.20050655  0.79872949
   0.03978522  0.06698579  0.59841443
   0.90425681  0.79926553  0.20198973
   0.80554082  0.59380402  0.40022301
   0.73285544  0.46580966  0.19989462
   0.66658004  0.33804601 -0.00267808
   0.36625268  0.72385170  0.60467098
   0.13250837  0.27309632  0.39982417
   0.82793234  0.66650759  0.00466840
   0.94803779  0.84514068  0.79862555
   0.56619285  0.13435465  0.19564377
   0.40624658  0.79546737  0.19858260
   0.44158296  0.85966991  0.79751048
   0.30166149  0.60213842  0.40614834
   0.84941301  0.73686281  0.59353836
   0.46540569  0.93208041  0.40565663
   0.17450586  0.34356984 -0.00833523
   0.19964735  0.40035543  0.60675176
   0.06385344  0.14599043  0.20599081
   0.76085775  0.52824803  0.80157550
   0.69762170  0.40618438  0.60284861
   0.59252023  0.20824570  0.79647133
   0.53778457  0.07054591  0.60401276
   0.33199519  0.65578934 -0.00348235
   0.23167155  0.46933524  0.19962875
SQS with 1 vacancy for VFE and VRV      
           1
    -3.198654   -3.192541   -3.201264
     1.548795    1.549850   -7.906246
     7.930790   -7.934826   -1.581113
   Nb   Mo   Ta   Ti   W 
   6   6   6   5   6
Direct configuration=    11
   0.96235574  0.93502195  0.39624991
   0.63147904  0.26599116  0.40188067
   0.50109715  0.00380136 -0.00541125
   0.00051053  0.00094635  0.00015664
   0.09327491  0.19983086  0.79867165
   0.03979160  0.06649702  0.59861627
   0.90462633  0.79973580  0.20183591
   0.80506550  0.59413234  0.40046873
   0.73280847  0.46662659  0.19996693
   0.66742419  0.33814140 -0.00285496
   0.36483208  0.72335929  0.60531758
   0.13285720  0.27337764  0.40037688
   0.82713890  0.66554685  0.00527547
   0.95023225  0.84071861  0.79786381
   0.56640811  0.13429014  0.19515275
   0.40589806  0.79637932  0.19864572
   0.44281760  0.85931633  0.79733473
   0.30124620  0.60258889  0.40607677
   0.84737675  0.73698460  0.59279426
   0.46533661  0.93233978  0.40607644
   0.17509040  0.34517210 -0.01018800
   0.19890587  0.40111402  0.60832949
   0.06332147  0.14760714  0.20573582
   0.76083361  0.52757006  0.80160895
   0.69815707  0.40603010  0.60331946
   0.59299248  0.20771048  0.79628556
   0.53775739  0.07031983  0.60414939
   0.33210363  0.65580478 -0.00352486
   0.23159419  0.46971187  0.19978929
SQS with 1 vacancy for VFE and VRV      
           1
    -3.198738   -3.194574   -3.201597
     1.553336    1.542035   -7.902789
     7.935110   -7.933530   -1.591719
   Nb   Mo   Ta   Ti   W 
   6   6   6   5   6
Direct configuration=    12
   0.96290468  0.93642977  0.39587133
   0.63159233  0.26581340  0.40246066
   0.50206692  0.00446799 -0.00596647
   0.00133992  0.00094249  0.00007031
   0.09100090  0.19847901  0.79855664
   0.03980450  0.06551887  0.59902031
   0.90536516  0.80067689  0.20152789
   0.80411498  0.59478880  0.40095993
   0.73271441  0.46826089  0.20011090
   0.66911219  0.33833257 -0.00320886
   0.36199151  0.72237310  0.60661121
   0.13355482  0.27393974  0.40148195
   0.82555254  0.66362381  0.00649034
   0.95462121  0.83187276  0.79634364
   0.56683849  0.13416178  0.19417082
   0.40520096  0.79820371  0.19877128
   0.44528657  0.85860930  0.79698340
   0.30041563  0.60349019  0.40593335
   0.84330464  0.73722909  0.59130635
   0.46519851  0.93285812  0.40691577
   0.17625862  0.34838031 -0.01389451
   0.19742331  0.40262945  0.61148416
   0.06225731  0.15084194  0.20522470
   0.76078547  0.52621362  0.80167638
   0.69922780  0.40572085  0.60426112
   0.59393691  0.20664000  0.79591441
   0.53770310  0.06986733  0.60442282
   0.33232048  0.65583572 -0.00360989
   0.23143945  0.47046516  0.20011006
SQS with 1 vacancy for VFE and VRV      
           1
    -3.203252   -3.202109   -3.207772
     1.554088    1.545876   -7.916794
     7.948656   -7.956188   -1.593197
   Nb   Mo   Ta   Ti   W 
   6   6   6   5   6
Direct configuration=    13
   0.96298158  0.93619119  0.39594021
   0.63150272  0.26643692  0.40229081
   0.50217016  0.00414104 -0.00582917
   0.00155734  0.00043366 -0.00017063
   0.09273642  0.19818625  0.79865609
   0.03945907  0.06555554  0.59878952
   0.90478315  0.80080146  0.20196539
   0.80415504  0.59460874  0.40086073
   0.73258336  0.46811427  0.20046597
   0.66825409  0.33863774 -0.00291616
   0.36297323  0.72232554  0.60597580
   0.13313677  0.27438274  0.40113092
   0.82703572  0.66430363  0.00602524
   0.95484221  0.83188151  0.79698275
   0.56695199  0.13496827  0.19458802
   0.40542510  0.79822956  0.19852005
   0.44444994  0.85807907  0.79705651
   0.29996555  0.60350728  0.40647107
   0.84412575  0.73662275  0.59149296
   0.46504966  0.93328007  0.40645460
   0.17609752  0.34814622 -0.01362390
   0.19774377  0.40249945  0.61139358
   0.06254653  0.15076383  0.20482230
   0.75987923  0.52601375  0.80135722
   0.69783363  0.40624648  0.60403009
   0.59391119  0.20592350  0.79601142
   0.53738425  0.06969015  0.60441184
   0.33220561  0.65607642 -0.00282442
   0.23159273  0.47061965  0.19967119
SQS with 1 vacancy for VFE and VRV      
           1
    -3.202794   -3.201344   -3.207145
     1.554012    1.545486   -7.915373
     7.947282   -7.953890   -1.593047
   Nb   Mo   Ta   Ti   W 
   6   6   6   5   6
Direct configuration=    14
   0.96297379  0.93621535  0.39593325
   0.63151178  0.26637378  0.40230799
   0.50215972  0.00417414 -0.00584306
   0.00153529  0.00048520 -0.00014623
   0.09256069  0.19821589  0.79864606
   0.03949402  0.06555184  0.59881288
   0.90484214  0.80078881  0.20192109
   0.80415097  0.59462699  0.40087077
   0.73259666  0.46812909  0.20043003
   0.66834102  0.33860681 -0.00294581
   0.36287375  0.72233040  0.60604014
   0.13317907  0.27433790  0.40116644
   0.82688549  0.66423481  0.00607233
   0.95481990  0.83188058  0.79691807
   0.56694055  0.13488656  0.19454578
   0.40540237  0.79822696  0.19854549
   0.44453466  0.85813276  0.79704910
   0.30001119  0.60350551  0.40641663
   0.84404261  0.73668414  0.59147410
   0.46506469  0.93323737  0.40650127
   0.17611386  0.34816991 -0.01365129
   0.19771131  0.40251262  0.61140276
   0.06251720  0.15077177  0.20486304
   0.75997096  0.52603402  0.80138951
   0.69797479  0.40619326  0.60405344
   0.59391379  0.20599606  0.79600161
   0.53741654  0.06970810  0.60441295
   0.33221733  0.65605198 -0.00290393
   0.23157716  0.47060403  0.19971561
SQS with 1 vacancy for VFE and VRV      
           1
    -3.198808   -3.199752   -3.204774
     1.551285    1.544112   -7.908124
     7.939223   -7.952160   -1.591476
   Nb   Mo   Ta   Ti   W 
   6   6   6   5   6
Direct configuration=    15
   0.96298651  0.93606629  0.39597299
   0.63136572  0.26686758  0.40224513
   0.50234545  0.00391697 -0.00570325
   0.00168029  0.00011514 -0.00030284
   0.09369066  0.19802201  0.79868107
   0.03921234  0.06556166  0.59864567
   0.90442221  0.80089765  0.20227997
   0.80419151  0.59447261  0.40077737
   0.73253242  0.46817253  0.20061026
   0.66770945  0.33890676 -0.00274240
   0.36370965  0.72236809  0.60545757
   0.13282534  0.27478971  0.40081985
   0.82794628  0.66465314  0.00580417
   0.95483898  0.83193730  0.79738863
   0.56699078  0.13563525  0.19483461
   0.40559193  0.79819936  0.19835802
   0.44406619  0.85752093  0.79708793
   0.29965599  0.60356596  0.40677269
   0.84474994  0.73617377  0.59166749
   0.46493150  0.93363618  0.40610615
   0.17596037  0.34796385 -0.01341263
   0.19792407  0.40229264  0.61132655
   0.06272281  0.15074486  0.20450264
   0.75907459  0.52573687  0.80117623
   0.69692883  0.40653907  0.60391699
   0.59413815  0.20528953  0.79605343
   0.53719050  0.06955251  0.60439821
   0.33235309  0.65626941 -0.00216526
   0.23159777  0.47079905  0.19944273
SQS with 1 vacancy for VFE and VRV      
           1
    -3.197146   -3.199087   -3.203785
     1.550147    1.543539   -7.905101
     7.935862   -7.951439   -1.590820
   Nb   Mo   Ta   Ti   W 
   6   6   6   5   6
Direct configuration=    16
   0.96299181  0.93600407  0.39598957
   0.63130473  0.26707372  0.40221893
   0.50242295  0.00380963 -0.00564492
   0.00174089 -0.00003938 -0.00036822
   0.09416236  0.19794106  0.79869560
   0.03909481  0.06556574  0.59857591
   0.90424679  0.80094315  0.20242978
   0.80420848  0.59440815  0.40073838
   0.73250554  0.46819070  0.20068549
   0.66744572  0.33903203 -0.00265745
   0.36405877  0.72238372  0.60521439
   0.13267776  0.27497827  0.40067525
   0.82838915  0.66482773  0.00569220
   0.95484678  0.83196105  0.79758501
   0.56701160  0.13594786  0.19495517
   0.40567113  0.79818780  0.19827978
   0.44387067  0.85726551  0.79710415
   0.29950759  0.60359126  0.40692130
   0.84504518  0.73596072  0.59174814
   0.46487600  0.93380261  0.40594127
   0.17589624  0.34787787 -0.01331302
   0.19801293  0.40220079  0.61129473
   0.06280876  0.15073357  0.20435222
   0.75870051  0.52561278  0.80108727
   0.69649222  0.40668343  0.60386013
   0.59423184  0.20499457  0.79607502
   0.53709616  0.06948756  0.60439206
   0.33240950  0.65636030 -0.00185698
   0.23160645  0.47088042  0.19932886
SQS with 1 vacancy for VFE and VRV      
           1
    -3.196870   -3.198853   -3.204001
     1.550041    1.543143   -7.905380
     7.935863   -7.951324   -1.591145
   Nb   Mo   Ta   Ti   W 
   6   6   6   5   6
Direct configuration=    17
   0.96288304  0.93611379  0.39600580
   0.63113582  0.26714125  0.40231789
   0.50252614  0.00383495 -0.00554829
   0.00173606  0.00004536 -0.00031751
   0.09396668  0.19797416  0.79864981
   0.03905989  0.06550302  0.59857547
   0.90423694  0.80105916  0.20248461
   0.80418638  0.59449691  0.40073356
   0.73265488  0.46840575  0.20053370
   0.66747896  0.33905718 -0.00265068
   0.36415968  0.72257873  0.60501435
   0.13265253  0.27511317  0.40054209
   0.82852226  0.66464366  0.00581712
   0.95459189  0.83195600  0.79753615
   0.56700753  0.13616928  0.19491935
   0.40564201  0.79818215  0.19836393
   0.44398020  0.85697087  0.79709975
   0.29941544  0.60370007  0.40682401
   0.84539644  0.73577903  0.59188015
   0.46480084  0.93402894  0.40577687
   0.17584841  0.34779165 -0.01329792
   0.19790394  0.40200000  0.61131676
   0.06285149  0.15076024  0.20420205
   0.75831617  0.52532778  0.80113226
   0.69649240  0.40650131  0.60386830
   0.59459422  0.20468205  0.79609870
   0.53708851  0.06938544  0.60430907
   0.33277951  0.65645767 -0.00164002
   0.23142509  0.47100709  0.19945268
SQS with 1 vacancy for VFE and VRV      
           1
    -3.196042   -3.198151   -3.204649
     1.549724    1.541957   -7.906217
     7.935867   -7.950982   -1.592120
   Nb   Mo   Ta   Ti   W 
   6   6   6   5   6
Direct configuration=    18
   0.96255667  0.93644296  0.39605446
   0.63062905  0.26734385  0.40261479
   0.50283572  0.00391087 -0.00525839
   0.00172154  0.00029959 -0.00016538
   0.09337960  0.19807351  0.79851242
   0.03895513  0.06531488  0.59857418
   0.90420735  0.80140721  0.20264910
   0.80412007  0.59476318  0.40071910
   0.73310285  0.46905091  0.20007833
   0.66757868  0.33913265 -0.00263036
   0.36446237  0.72316377  0.60441421
   0.13257680  0.27551789  0.40014258
   0.82892165  0.66409142  0.00619191
   0.95382715  0.83194088  0.79738958
   0.56699529  0.13683353  0.19481188
   0.40555466  0.79816520  0.19861637
   0.44430889  0.85608693  0.79708657
   0.29913896  0.60402653  0.40653211
   0.84645031  0.73523388  0.59227617
   0.46457529  0.93470797  0.40528366
   0.17570496  0.34753302 -0.01325262
   0.19757700  0.40139763  0.61138287
   0.06297965  0.15084029  0.20375152
   0.75716315  0.52447281  0.80126723
   0.69649297  0.40595497  0.60389283
   0.59568149  0.20374445  0.79616976
   0.53706557  0.06907910  0.60406012
   0.33388958  0.65674968 -0.00098915
   0.23088093  0.47138712  0.19982416
SQS with 1 vacancy for VFE and VRV      
           1
    -3.198291   -3.199710   -3.206293
     1.550922    1.542750   -7.910421
     7.941781   -7.955104   -1.593017
   Nb   Mo   Ta   Ti   W 
   6   6   6   5   6
Direct configuration=    19
   0.96241599  0.93665409  0.39602220
   0.63076897  0.26739956  0.40245708
   0.50272093  0.00389057 -0.00535457
   0.00188872  0.00032876 -0.00023578
   0.09359835  0.19770841  0.79855523
   0.03913557  0.06520624  0.59852682
   0.90416453  0.80159087  0.20260220
   0.80413012  0.59488657  0.40078785
   0.73304154  0.46891628  0.20031187
   0.66756113  0.33903121 -0.00257741
   0.36431186  0.72314415  0.60442995
   0.13245015  0.27545136  0.40021878
   0.82903163  0.66424043  0.00608640
   0.95419435  0.83160626  0.79753570
   0.56699980  0.13688388  0.19479708
   0.40557108  0.79849677  0.19861672
   0.44420472  0.85619664  0.79711468
   0.29924784  0.60408428  0.40666988
   0.84637576  0.73517764  0.59221068
   0.46448813  0.93478393  0.40530587
   0.17590733  0.34760202 -0.01337403
   0.19763209  0.40138291  0.61139033
   0.06302085  0.15095046  0.20377988
   0.75701309  0.52446986  0.80134002
   0.69637838  0.40593278  0.60381393
   0.59541374  0.20359215  0.79612261
   0.53711300  0.06888556  0.60413877
   0.33342777  0.65673388 -0.00106302
   0.23112593  0.47143916  0.19977029
SQS with 1 vacancy for VFE and VRV      
           1
    -3.197933   -3.199461   -3.206031
     1.550731    1.542624   -7.909751
     7.940839   -7.954447   -1.592874
   Nb   Mo   Ta   Ti   W 
   6   6   6   5   6
Direct configuration=    20
   0.96243839  0.93662046  0.39602734
   0.63074669  0.26739069  0.40248219
   0.50273921  0.00389380 -0.00533926
   0.00186209  0.00032411 -0.00022457
   0.09356351  0.19776655  0.79854841
   0.03910684  0.06522354  0.59853436
   0.90417135  0.80156162  0.20260967
   0.80412851  0.59486692  0.40077690
   0.73305129  0.46893772  0.20027468
   0.66756393  0.33904737 -0.00258584
   0.36433583  0.72314728  0.60442744
   0.13247031  0.27546196  0.40020665
   0.82901412  0.66421670  0.00610320
   0.95413587  0.83165955  0.79751243
   0.56699908  0.13687586  0.19479944
   0.40556846  0.79844396  0.19861666
   0.44422131  0.85617916  0.79711021
   0.29923050  0.60407508  0.40664794
   0.84638764  0.73518660  0.59222111
   0.46450201  0.93477184  0.40530233
   0.17587511  0.34759103 -0.01335470
   0.19762331  0.40138526  0.61138914
   0.06301428  0.15093291  0.20377536
   0.75703698  0.52447033  0.80132843
   0.69639663  0.40593631  0.60382649
   0.59545639  0.20361641  0.79613012
   0.53710545  0.06891638  0.60412625
   0.33350132  0.65673639 -0.00105125
   0.23108691  0.47143087  0.19977887
