  29  29   0   0
  0.1679057E+02  0.5525242E-09  0.8287863E-09  0.1139058E-08  0.5000000E-15
  1.000000000000000E-004
  CAR 
 SQS with 1 vacancy for VFE and VRV      
     12.10233360    -50.17255725  301      6.87092478      1.00000000
    -50.173  0.0000E+00  0.0000E+00
    -49.965  0.0000E+00  0.0000E+00
    -49.757  0.0000E+00  0.0000E+00
    -49.550  0.0000E+00  0.0000E+00
    -49.342  0.0000E+00  0.0000E+00
    -49.135 -0.8035E-35 -0.1668E-35
    -48.927 -0.3239E-27 -0.6723E-28
    -48.719 -0.1388E-20 -0.2880E-21
    -48.512 -0.6581E-15 -0.1366E-15
    -48.304 -0.3545E-10 -0.7359E-11
    -48.097 -0.2099E-06 -0.4358E-07
    -47.889 -0.1294E-03 -0.2690E-04
    -47.682 -0.6932E-02 -0.1466E-02
    -47.474  0.1360E-01  0.1358E-02
    -47.266  0.3290E+00  0.6964E-01
    -47.059  0.5232E+00  0.1783E+00
    -46.851  0.2809E+00  0.2366E+00
    -46.644  0.2333E-01  0.2414E+00
    -46.436 -0.6541E-02  0.2400E+00
    -46.228 -0.2359E-03  0.2400E+00
    -46.021 -0.6969E-06  0.2400E+00
    -45.813 -0.2108E-09  0.2400E+00
    -45.606 -0.6940E-14  0.2400E+00
    -45.398  0.0000E+00  0.2400E+00
    -45.191  0.0000E+00  0.2400E+00
    -44.983  0.0000E+00  0.2400E+00
    -44.775  0.0000E+00  0.2400E+00
    -44.568  0.0000E+00  0.2400E+00
    -44.360  0.0000E+00  0.2400E+00
    -44.153  0.0000E+00  0.2400E+00
    -43.945  0.0000E+00  0.2400E+00
    -43.737  0.0000E+00  0.2400E+00
    -43.530  0.0000E+00  0.2400E+00
    -43.322  0.0000E+00  0.2400E+00
    -43.115  0.0000E+00  0.2400E+00
    -42.907  0.0000E+00  0.2400E+00
    -42.700  0.0000E+00  0.2400E+00
    -42.492  0.0000E+00  0.2400E+00
    -42.284  0.0000E+00  0.2400E+00
    -42.077  0.0000E+00  0.2400E+00
    -41.869  0.0000E+00  0.2400E+00
    -41.662  0.0000E+00  0.2400E+00
    -41.454  0.0000E+00  0.2400E+00
    -41.246  0.0000E+00  0.2400E+00
    -41.039  0.0000E+00  0.2400E+00
    -40.831  0.0000E+00  0.2400E+00
    -40.624  0.0000E+00  0.2400E+00
    -40.416  0.0000E+00  0.2400E+00
    -40.209  0.0000E+00  0.2400E+00
    -40.001  0.0000E+00  0.2400E+00
    -39.793  0.0000E+00  0.2400E+00
    -39.586  0.0000E+00  0.2400E+00
    -39.378  0.0000E+00  0.2400E+00
    -39.171  0.0000E+00  0.2400E+00
    -38.963  0.0000E+00  0.2400E+00
    -38.755  0.0000E+00  0.2400E+00
    -38.548  0.0000E+00  0.2400E+00
    -38.340  0.0000E+00  0.2400E+00
    -38.133  0.0000E+00  0.2400E+00
    -37.925  0.0000E+00  0.2400E+00
    -37.718  0.0000E+00  0.2400E+00
    -37.510  0.0000E+00  0.2400E+00
    -37.302  0.0000E+00  0.2400E+00
    -37.095  0.0000E+00  0.2400E+00
    -36.887  0.0000E+00  0.2400E+00
    -36.680  0.0000E+00  0.2400E+00
    -36.472  0.0000E+00  0.2400E+00
    -36.264  0.0000E+00  0.2400E+00
    -36.057  0.0000E+00  0.2400E+00
    -35.849  0.0000E+00  0.2400E+00
    -35.642  0.0000E+00  0.2400E+00
    -35.434  0.0000E+00  0.2400E+00
    -35.227  0.0000E+00  0.2400E+00
    -35.019  0.0000E+00  0.2400E+00
    -34.811  0.0000E+00  0.2400E+00
    -34.604  0.0000E+00  0.2400E+00
    -34.396  0.0000E+00  0.2400E+00
    -34.189  0.0000E+00  0.2400E+00
    -33.981  0.0000E+00  0.2400E+00
    -33.774  0.0000E+00  0.2400E+00
    -33.566  0.0000E+00  0.2400E+00
    -33.358  0.0000E+00  0.2400E+00
    -33.151  0.0000E+00  0.2400E+00
    -32.943  0.0000E+00  0.2400E+00
    -32.736  0.0000E+00  0.2400E+00
    -32.528  0.0000E+00  0.2400E+00
    -32.320  0.0000E+00  0.2400E+00
    -32.113  0.0000E+00  0.2400E+00
    -31.905  0.0000E+00  0.2400E+00
    -31.698  0.0000E+00  0.2400E+00
    -31.490  0.0000E+00  0.2400E+00
    -31.283  0.0000E+00  0.2400E+00
    -31.075  0.0000E+00  0.2400E+00
    -30.867  0.0000E+00  0.2400E+00
    -30.660  0.0000E+00  0.2400E+00
    -30.452  0.0000E+00  0.2400E+00
    -30.245  0.0000E+00  0.2400E+00
    -30.037  0.0000E+00  0.2400E+00
    -29.829  0.0000E+00  0.2400E+00
    -29.622  0.0000E+00  0.2400E+00
    -29.414  0.0000E+00  0.2400E+00
    -29.207  0.0000E+00  0.2400E+00
    -28.999  0.0000E+00  0.2400E+00
    -28.792  0.0000E+00  0.2400E+00
    -28.584  0.0000E+00  0.2400E+00
    -28.376  0.0000E+00  0.2400E+00
    -28.169  0.0000E+00  0.2400E+00
    -27.961  0.0000E+00  0.2400E+00
    -27.754  0.0000E+00  0.2400E+00
    -27.546  0.0000E+00  0.2400E+00
    -27.338  0.0000E+00  0.2400E+00
    -27.131  0.0000E+00  0.2400E+00
    -26.923  0.0000E+00  0.2400E+00
    -26.716  0.0000E+00  0.2400E+00
    -26.508  0.0000E+00  0.2400E+00
    -26.301  0.0000E+00  0.2400E+00
    -26.093  0.0000E+00  0.2400E+00
    -25.885  0.0000E+00  0.2400E+00
    -25.678 -0.4758E-32  0.2400E+00
    -25.470 -0.6384E-25  0.2400E+00
    -25.263 -0.9748E-19  0.2400E+00
    -25.055 -0.1628E-13  0.2400E+00
    -24.847 -0.3112E-09  0.2400E+00
    -24.640 -0.6548E-06  0.2400E+00
    -24.432 -0.1477E-03  0.2400E+00
    -24.225 -0.3194E-02  0.2393E+00
    -24.017  0.6781E-02  0.2407E+00
    -23.810  0.1532E+00  0.2725E+00
    -23.602  0.4680E+00  0.3697E+00
    -23.394  0.7675E+00  0.5290E+00
    -23.187  0.1007E+01  0.7381E+00
    -22.979  0.8030E+00  0.9048E+00
    -22.772  0.2135E+00  0.9491E+00
    -22.564  0.4905E-01  0.9593E+00
    -22.356  0.5213E-02  0.9604E+00
    -22.149 -0.1647E-02  0.9600E+00
    -21.941 -0.5332E-04  0.9600E+00
    -21.734 -0.1535E-06  0.9600E+00
    -21.526 -0.4650E-10  0.9600E+00
    -21.319 -0.1540E-14  0.9600E+00
    -21.111  0.0000E+00  0.9600E+00
    -20.903  0.0000E+00  0.9600E+00
    -20.696  0.0000E+00  0.9600E+00
    -20.488  0.0000E+00  0.9600E+00
    -20.281  0.0000E+00  0.9600E+00
    -20.073  0.0000E+00  0.9600E+00
    -19.865  0.0000E+00  0.9600E+00
    -19.658  0.0000E+00  0.9600E+00
    -19.450  0.0000E+00  0.9600E+00
    -19.243  0.0000E+00  0.9600E+00
    -19.035  0.0000E+00  0.9600E+00
    -18.828  0.0000E+00  0.9600E+00
    -18.620  0.0000E+00  0.9600E+00
    -18.412  0.0000E+00  0.9600E+00
    -18.205  0.0000E+00  0.9600E+00
    -17.997  0.0000E+00  0.9600E+00
    -17.790  0.0000E+00  0.9600E+00
    -17.582  0.0000E+00  0.9600E+00
    -17.374  0.0000E+00  0.9600E+00
    -17.167  0.0000E+00  0.9600E+00
    -16.959  0.0000E+00  0.9600E+00
    -16.752  0.0000E+00  0.9600E+00
    -16.544  0.0000E+00  0.9600E+00
    -16.337  0.0000E+00  0.9600E+00
    -16.129  0.0000E+00  0.9600E+00
    -15.921  0.0000E+00  0.9600E+00
    -15.714  0.0000E+00  0.9600E+00
    -15.506  0.0000E+00  0.9600E+00
    -15.299  0.0000E+00  0.9600E+00
    -15.091  0.0000E+00  0.9600E+00
    -14.883  0.0000E+00  0.9600E+00
    -14.676  0.0000E+00  0.9600E+00
    -14.468  0.0000E+00  0.9600E+00
    -14.261  0.0000E+00  0.9600E+00
    -14.053  0.0000E+00  0.9600E+00
    -13.846  0.0000E+00  0.9600E+00
    -13.638  0.0000E+00  0.9600E+00
    -13.430  0.0000E+00  0.9600E+00
    -13.223  0.0000E+00  0.9600E+00
    -13.015  0.0000E+00  0.9600E+00
    -12.808  0.0000E+00  0.9600E+00
    -12.600  0.0000E+00  0.9600E+00
    -12.392  0.0000E+00  0.9600E+00
    -12.185  0.0000E+00  0.9600E+00
    -11.977  0.0000E+00  0.9600E+00
    -11.770  0.0000E+00  0.9600E+00
    -11.562  0.0000E+00  0.9600E+00
    -11.355  0.0000E+00  0.9600E+00
    -11.147  0.0000E+00  0.9600E+00
    -10.939  0.0000E+00  0.9600E+00
    -10.732  0.0000E+00  0.9600E+00
    -10.524  0.0000E+00  0.9600E+00
    -10.317  0.0000E+00  0.9600E+00
    -10.109  0.0000E+00  0.9600E+00
     -9.901  0.0000E+00  0.9600E+00
     -9.694  0.0000E+00  0.9600E+00
     -9.486  0.0000E+00  0.9600E+00
     -9.279  0.0000E+00  0.9600E+00
     -9.071  0.0000E+00  0.9600E+00
     -8.864  0.0000E+00  0.9600E+00
     -8.656  0.0000E+00  0.9600E+00
     -8.448  0.0000E+00  0.9600E+00
     -8.241  0.0000E+00  0.9600E+00
     -8.033  0.0000E+00  0.9600E+00
     -7.826  0.0000E+00  0.9600E+00
     -7.618  0.0000E+00  0.9600E+00
     -7.410  0.0000E+00  0.9600E+00
     -7.203  0.0000E+00  0.9600E+00
     -6.995  0.0000E+00  0.9600E+00
     -6.788  0.0000E+00  0.9600E+00
     -6.580  0.0000E+00  0.9600E+00
     -6.373  0.0000E+00  0.9600E+00
     -6.165  0.0000E+00  0.9600E+00
     -5.957  0.0000E+00  0.9600E+00
     -5.750  0.0000E+00  0.9600E+00
     -5.542  0.0000E+00  0.9600E+00
     -5.335  0.0000E+00  0.9600E+00
     -5.127  0.0000E+00  0.9600E+00
     -4.919  0.0000E+00  0.9600E+00
     -4.712  0.0000E+00  0.9600E+00
     -4.504  0.0000E+00  0.9600E+00
     -4.297  0.0000E+00  0.9600E+00
     -4.089  0.0000E+00  0.9600E+00
     -3.882  0.0000E+00  0.9600E+00
     -3.674  0.0000E+00  0.9600E+00
     -3.466  0.0000E+00  0.9600E+00
     -3.259  0.0000E+00  0.9600E+00
     -3.051  0.0000E+00  0.9600E+00
     -2.844  0.0000E+00  0.9600E+00
     -2.636  0.0000E+00  0.9600E+00
     -2.428  0.0000E+00  0.9600E+00
     -2.221 -0.6511E-33  0.9600E+00
     -2.013 -0.7560E-26  0.9600E+00
     -1.806 -0.1005E-19  0.9600E+00
     -1.598 -0.1479E-14  0.9600E+00
     -1.391 -0.2540E-10  0.9600E+00
     -1.183 -0.4948E-07  0.9600E+00
     -0.975 -0.1071E-04  0.9600E+00
     -0.768 -0.2178E-03  0.9600E+00
     -0.560  0.8415E-03  0.9601E+00
     -0.353  0.9264E-02  0.9621E+00
     -0.145  0.2271E-01  0.9668E+00
      0.063  0.3592E-01  0.9742E+00
      0.270  0.3313E-01  0.9811E+00
      0.478  0.3097E-01  0.9875E+00
      0.685  0.5549E-01  0.9990E+00
      0.893  0.6609E-01  0.1013E+01
      1.100  0.5860E-01  0.1025E+01
      1.308  0.5768E-01  0.1037E+01
      1.516  0.8928E-01  0.1055E+01
      1.723  0.7532E-01  0.1071E+01
      1.931  0.9488E-01  0.1091E+01
      2.138  0.1478E+00  0.1121E+01
      2.346  0.2058E+00  0.1164E+01
      2.554  0.2981E+00  0.1226E+01
      2.761  0.3818E+00  0.1305E+01
      2.969  0.4450E+00  0.1398E+01
      3.176  0.5323E+00  0.1508E+01
      3.384  0.5679E+00  0.1626E+01
      3.591  0.5722E+00  0.1745E+01
      3.799  0.5841E+00  0.1866E+01
      4.007  0.6219E+00  0.1995E+01
      4.214  0.5711E+00  0.2114E+01
      4.422  0.4837E+00  0.2214E+01
      4.629  0.5606E+00  0.2331E+01
      4.837  0.6961E+00  0.2475E+01
      5.045  0.7827E+00  0.2638E+01
      5.252  0.8209E+00  0.2808E+01
      5.460  0.7692E+00  0.2968E+01
      5.667  0.7359E+00  0.3120E+01
      5.875  0.7212E+00  0.3270E+01
      6.082  0.7554E+00  0.3427E+01
      6.290  0.7733E+00  0.3587E+01
      6.498  0.7696E+00  0.3747E+01
      6.705  0.7139E+00  0.3895E+01
      6.913  0.6203E+00  0.4024E+01
      7.120  0.5080E+00  0.4130E+01
      7.328  0.4274E+00  0.4218E+01
      7.536  0.3406E+00  0.4289E+01
      7.743  0.3019E+00  0.4352E+01
      7.951  0.3228E+00  0.4419E+01
      8.158  0.3889E+00  0.4499E+01
      8.366  0.4171E+00  0.4586E+01
      8.573  0.4216E+00  0.4673E+01
      8.781  0.3248E+00  0.4741E+01
      8.989  0.1897E+00  0.4780E+01
      9.196  0.8347E-01  0.4798E+01
      9.404  0.1323E-01  0.4800E+01
      9.611 -0.1408E-02  0.4800E+01
      9.819 -0.2322E-03  0.4800E+01
     10.027 -0.2847E-05  0.4800E+01
     10.234 -0.3773E-08  0.4800E+01
     10.442 -0.5644E-12  0.4800E+01
     10.649 -0.9584E-17  0.4800E+01
     10.857  0.0000E+00  0.4800E+01
     11.064  0.0000E+00  0.4800E+01
     11.272  0.0000E+00  0.4800E+01
     11.480  0.0000E+00  0.4800E+01
     11.687  0.0000E+00  0.4800E+01
     11.895  0.0000E+00  0.4800E+01
     12.102  0.0000E+00  0.4800E+01
