   29   29   50    1
  0.1679057E+02  0.5525242E-09  0.8287863E-09  0.1139058E-08  0.5000000E-15
  1.000000000000000E-004
  CAR 
 SQS with 1 vacancy for VFE and VRV      
    200     63    120
 
  0.0000000E+00  0.0000000E+00  0.0000000E+00  0.8000000E-02
    1      -47.341880   1.000000
    2      -47.339844   1.000000
    3      -47.186693   1.000000
    4      -47.109010   1.000000
    5      -47.103674   1.000000
    6      -46.926050   1.000000
    7      -23.980206   1.000000
    8      -23.770235   1.000000
    9      -23.675715   1.000000
   10      -23.628818   1.000000
   11      -23.502414   1.000000
   12      -23.488300   1.000000
   13      -23.391925   1.000000
   14      -23.371896   1.000000
   15      -23.336436   1.000000
   16      -23.297898   1.000000
   17      -23.283501   1.000000
   18      -23.234732   1.000000
   19      -23.147525   1.000000
   20      -23.122147   1.000000
   21      -23.085945   1.000000
   22      -23.049269   1.000000
   23      -22.986973   1.000000
   24      -22.644593   1.000000
   25       -0.537886   1.000000
   26        0.870820   1.000000
   27        1.134740   1.000000
   28        2.044576   1.000000
   29        2.135379   1.000000
   30        2.139135   1.000000
   31        2.273441   1.000000
   32        2.437607   1.000000
   33        2.535798   1.000000
   34        2.625901   1.000000
   35        2.697888   1.000000
   36        2.740838   1.000000
   37        2.756304   1.000000
   38        2.886127   1.000000
   39        2.949687   1.000000
   40        3.021745   1.000000
   41        3.156722   1.000000
   42        3.248987   1.000000
   43        3.356967   1.000000
   44        3.442824   1.000000
   45        3.497605   1.000000
   46        3.545872   1.000000
   47        3.598587   1.000000
   48        3.661855   1.000000
   49        3.699211   1.000000
   50        3.757431   1.000000
   51        3.873432   1.000000
   52        3.926095   1.000000
   53        3.997573   1.000000
   54        4.002185   1.000000
   55        4.143792   1.000000
   56        4.184074   1.000000
   57        4.280927   1.000000
   58        4.418803   1.000000
   59        4.508038   1.000000
   60        4.585421   1.000000
   61        4.649038   1.000000
   62        4.681347   1.000000
   63        4.782070   1.000000
   64        4.789713   1.000000
   65        4.841767   1.000000
   66        4.910381   1.000000
   67        4.912067   1.000000
   68        5.021455   1.000000
   69        5.073310   1.000000
   70        5.130604   1.000000
   71        5.196872   1.000000
   72        5.218761   1.000000
   73        5.281254   1.000000
   74        5.321566   1.000000
   75        5.413081   1.000000
   76        5.458385   1.000000
   77        5.506827   1.000000
   78        5.558928   1.000000
   79        5.611796   1.000000
   80        5.785731   1.000000
   81        5.864193   1.000000
   82        5.975982   1.000000
   83        6.013871   1.000000
   84        6.053750   1.000000
   85        6.109914   1.000001
   86        6.238347   1.000036
   87        6.269669   1.000090
   88        6.304341   1.000231
   89        6.385253   1.001585
   90        6.410728   1.002689
   91        6.465850   1.007359
   92        6.525391   1.017358
   93        6.638234   1.034829
   94        6.714965   0.984697
   95        6.744891   0.933093
   96        6.864041   0.529111
   97        6.878158   0.469416
   98        6.968903   0.135504
   99        7.077362  -0.028153
  100        7.093692  -0.033265
  101        7.187373  -0.023888
  102        7.252162  -0.010696
  103        7.307917  -0.004205
  104        7.460647  -0.000124
  105        7.690444  -0.000000
  106        7.831328  -0.000000
  107        7.854112  -0.000000
  108        7.995222  -0.000000
  109        8.039662  -0.000000
  110        8.487354  -0.000000
  111        8.523543  -0.000000
  112        8.639467  -0.000000
  113        8.729514  -0.000000
  114        8.809685  -0.000000
  115        8.888887  -0.000000
  116        8.985270  -0.000000
  117        9.038284  -0.000000
  118        9.087963  -0.000000
  119        9.139942  -0.000000
  120        9.208366  -0.000000
 
  0.2000000E+00 -0.1387779E-16  0.0000000E+00  0.1600000E-01
    1      -47.340932   1.000000
    2      -47.335030   1.000000
    3      -47.186132   1.000000
    4      -47.108655   1.000000
    5      -47.103265   1.000000
    6      -46.931937   1.000000
    7      -23.876864   1.000000
    8      -23.768339   1.000000
    9      -23.670876   1.000000
   10      -23.626271   1.000000
   11      -23.503438   1.000000
   12      -23.484333   1.000000
   13      -23.396313   1.000000
   14      -23.374216   1.000000
   15      -23.342905   1.000000
   16      -23.301501   1.000000
   17      -23.290833   1.000000
   18      -23.238649   1.000000
   19      -23.149633   1.000000
   20      -23.125904   1.000000
   21      -23.094705   1.000000
   22      -23.054191   1.000000
   23      -22.986265   1.000000
   24      -22.766023   1.000000
   25       -0.217445   1.000000
   26        1.127991   1.000000
   27        1.413962   1.000000
   28        2.157441   1.000000
   29        2.289711   1.000000
   30        2.406450   1.000000
   31        2.474455   1.000000
   32        2.611251   1.000000
   33        2.663739   1.000000
   34        2.779288   1.000000
   35        2.825221   1.000000
   36        2.936739   1.000000
   37        3.006674   1.000000
   38        3.079050   1.000000
   39        3.148506   1.000000
   40        3.204421   1.000000
   41        3.290533   1.000000
   42        3.352255   1.000000
   43        3.400368   1.000000
   44        3.467924   1.000000
   45        3.591728   1.000000
   46        3.652751   1.000000
   47        3.747715   1.000000
   48        3.820993   1.000000
   49        3.896090   1.000000
   50        3.942657   1.000000
   51        3.958100   1.000000
   52        4.039163   1.000000
   53        4.060322   1.000000
   54        4.152735   1.000000
   55        4.238021   1.000000
   56        4.304968   1.000000
   57        4.403886   1.000000
   58        4.505150   1.000000
   59        4.574783   1.000000
   60        4.648328   1.000000
   61        4.722515   1.000000
   62        4.815964   1.000000
   63        4.843637   1.000000
   64        4.890770   1.000000
   65        4.926786   1.000000
   66        4.986836   1.000000
   67        5.029792   1.000000
   68        5.099130   1.000000
   69        5.130019   1.000000
   70        5.186203   1.000000
   71        5.220703   1.000000
   72        5.283807   1.000000
   73        5.362671   1.000000
   74        5.380237   1.000000
   75        5.484272   1.000000
   76        5.524359   1.000000
   77        5.546604   1.000000
   78        5.575986   1.000000
   79        5.657659   1.000000
   80        5.683083   1.000000
   81        5.767172   1.000000
   82        5.821725   1.000000
   83        5.957016   1.000000
   84        6.004247   1.000000
   85        6.057727   1.000000
   86        6.126346   1.000001
   87        6.161925   1.000003
   88        6.239294   1.000038
   89        6.305841   1.000240
   90        6.378604   1.001372
   91        6.406482   1.002469
   92        6.462309   1.006938
   93        6.509355   1.014132
   94        6.554662   1.023931
   95        6.590755   1.031741
   96        6.680982   1.019091
   97        6.726227   0.967806
   98        6.823277   0.695409
   99        6.878996   0.465879
  100        6.930306   0.260593
  101        7.024564   0.018543
  102        7.132865  -0.034470
  103        7.179483  -0.025710
  104        7.241909  -0.012411
  105        7.329651  -0.002769
  106        7.468377  -0.000100
  107        7.526386  -0.000018
  108        7.702293  -0.000000
  109        7.822095  -0.000000
  110        8.068828  -0.000000
  111        8.093970  -0.000000
  112        8.153685  -0.000000
  113        8.195389  -0.000000
  114        8.309354  -0.000000
  115        8.404263  -0.000000
  116        8.470065  -0.000000
  117        8.551245  -0.000000
  118        8.614052  -0.000000
  119        8.656159  -0.000000
  120        8.809206  -0.000000
 
  0.4000000E+00 -0.2775558E-16  0.0000000E+00  0.1600000E-01
    1      -47.340304   1.000000
    2      -47.325971   1.000000
    3      -47.185224   1.000000
    4      -47.108082   1.000000
    5      -47.102632   1.000000
    6      -46.941794   1.000000
    7      -23.772197   1.000000
    8      -23.687157   1.000000
    9      -23.636131   1.000000
   10      -23.577024   1.000000
   11      -23.506707   1.000000
   12      -23.474827   1.000000
   13      -23.405125   1.000000
   14      -23.379118   1.000000
   15      -23.351991   1.000000
   16      -23.308887   1.000000
   17      -23.302359   1.000000
   18      -23.243714   1.000000
   19      -23.158015   1.000000
   20      -23.133703   1.000000
   21      -23.110821   1.000000
   22      -23.067019   1.000000
   23      -23.048732   1.000000
   24      -22.972790   1.000000
   25        0.608630   1.000000
   26        1.541516   1.000000
   27        2.033673   1.000000
   28        2.211321   1.000000
   29        2.453400   1.000000
   30        2.608282   1.000000
   31        2.690180   1.000000
   32        2.841113   1.000000
   33        2.983303   1.000000
   34        3.036161   1.000000
   35        3.178491   1.000000
   36        3.277549   1.000000
   37        3.297580   1.000000
   38        3.361484   1.000000
   39        3.437023   1.000000
   40        3.516576   1.000000
   41        3.524806   1.000000
   42        3.656256   1.000000
   43        3.692103   1.000000
   44        3.748007   1.000000
   45        3.815246   1.000000
   46        3.882210   1.000000
   47        3.966855   1.000000
   48        4.028616   1.000000
   49        4.099664   1.000000
   50        4.136801   1.000000
   51        4.240983   1.000000
   52        4.274896   1.000000
   53        4.338175   1.000000
   54        4.370054   1.000000
   55        4.484959   1.000000
   56        4.561687   1.000000
   57        4.627317   1.000000
   58        4.667762   1.000000
   59        4.718911   1.000000
   60        4.789415   1.000000
   61        4.818980   1.000000
   62        4.858589   1.000000
   63        4.879342   1.000000
   64        4.976238   1.000000
   65        5.014185   1.000000
   66        5.034112   1.000000
   67        5.081136   1.000000
   68        5.156563   1.000000
   69        5.194969   1.000000
   70        5.220526   1.000000
   71        5.278353   1.000000
   72        5.297210   1.000000
   73        5.396012   1.000000
   74        5.431677   1.000000
   75        5.474037   1.000000
   76        5.493426   1.000000
   77        5.585385   1.000000
   78        5.624861   1.000000
   79        5.675463   1.000000
   80        5.714600   1.000000
   81        5.760646   1.000000
   82        5.850457   1.000000
   83        5.889800   1.000000
   84        5.972566   1.000000
   85        6.015812   1.000000
   86        6.096830   1.000000
   87        6.143602   1.000002
   88        6.177666   1.000005
   89        6.217139   1.000019
   90        6.277797   1.000113
   91        6.322688   1.000369
   92        6.385924   1.001608
   93        6.391377   1.001806
   94        6.454792   1.006107
   95        6.492232   1.011106
   96        6.535820   1.019626
   97        6.556365   1.024325
   98        6.625411   1.035457
   99        6.676740   1.021841
  100        6.739537   0.943931
  101        6.793149   0.803129
  102        6.855235   0.566162
  103        6.928355   0.267744
  104        6.969832   0.132919
  105        7.071223  -0.025281
  106        7.117243  -0.035451
  107        7.154920  -0.031019
  108        7.235351  -0.013595
  109        7.305156  -0.004425
  110        7.494389  -0.000048
  111        7.559704  -0.000006
  112        7.634170  -0.000000
  113        7.805031  -0.000000
  114        7.843054  -0.000000
  115        7.958951  -0.000000
  116        7.978899  -0.000000
  117        8.017749  -0.000000
  118        8.278428  -0.000000
  119        8.352464  -0.000000
  120        8.461259  -0.000000
 
  0.0000000E+00  0.2000000E+00  0.1387779E-16  0.1600000E-01
    1      -47.341814   1.000000
    2      -47.339799   1.000000
    3      -47.186689   1.000000
    4      -47.109123   1.000000
    5      -47.103668   1.000000
    6      -46.926048   1.000000
    7      -23.980221   1.000000
    8      -23.767994   1.000000
    9      -23.674060   1.000000
   10      -23.628226   1.000000
   11      -23.502581   1.000000
   12      -23.488437   1.000000
   13      -23.392060   1.000000
   14      -23.371925   1.000000
   15      -23.336446   1.000000
   16      -23.297843   1.000000
   17      -23.283542   1.000000
   18      -23.234717   1.000000
   19      -23.147553   1.000000
   20      -23.122227   1.000000
   21      -23.086012   1.000000
   22      -23.053983   1.000000
   23      -22.987267   1.000000
   24      -22.644598   1.000000
   25       -0.400598   1.000000
   26        0.900171   1.000000
   27        1.229249   1.000000
   28        1.671453   1.000000
   29        2.003796   1.000000
   30        2.226799   1.000000
   31        2.317999   1.000000
   32        2.514752   1.000000
   33        2.587271   1.000000
   34        2.631955   1.000000
   35        2.700863   1.000000
   36        2.737141   1.000000
   37        2.804122   1.000000
   38        2.896074   1.000000
   39        2.933078   1.000000
   40        3.025829   1.000000
   41        3.097844   1.000000
   42        3.132041   1.000000
   43        3.278381   1.000000
   44        3.363028   1.000000
   45        3.450959   1.000000
   46        3.538065   1.000000
   47        3.645081   1.000000
   48        3.735265   1.000000
   49        3.815881   1.000000
   50        3.833385   1.000000
   51        3.861965   1.000000
   52        3.902461   1.000000
   53        3.974156   1.000000
   54        4.063178   1.000000
   55        4.121692   1.000000
   56        4.289272   1.000000
   57        4.347864   1.000000
   58        4.467143   1.000000
   59        4.523619   1.000000
   60        4.600954   1.000000
   61        4.668137   1.000000
   62        4.724252   1.000000
   63        4.790442   1.000000
   64        4.849747   1.000000
   65        4.954886   1.000000
   66        4.965740   1.000000
   67        5.013409   1.000000
   68        5.048509   1.000000
   69        5.122447   1.000000
   70        5.163663   1.000000
   71        5.195935   1.000000
   72        5.259933   1.000000
   73        5.302534   1.000000
   74        5.362662   1.000000
   75        5.398976   1.000000
   76        5.505675   1.000000
   77        5.549370   1.000000
   78        5.596063   1.000000
   79        5.668792   1.000000
   80        5.828324   1.000000
   81        5.859170   1.000000
   82        5.920114   1.000000
   83        5.976319   1.000000
   84        6.049155   1.000000
   85        6.104560   1.000000
   86        6.163735   1.000003
   87        6.215518   1.000018
   88        6.238733   1.000037
   89        6.268385   1.000087
   90        6.325788   1.000398
   91        6.358593   1.000875
   92        6.398056   1.002077
   93        6.457939   1.006445
   94        6.530275   1.018406
   95        6.655791   1.031303
   96        6.767568   0.879176
   97        6.871381   0.498071
   98        7.025741   0.016884
   99        7.068896  -0.024042
  100        7.136295  -0.034065
  101        7.239611  -0.012818
  102        7.318174  -0.003465
  103        7.377538  -0.000998
  104        7.537108  -0.000013
  105        7.641240  -0.000000
  106        7.748339  -0.000000
  107        7.920843  -0.000000
  108        8.002172  -0.000000
  109        8.080985  -0.000000
  110        8.151035  -0.000000
  111        8.213713  -0.000000
  112        8.376948  -0.000000
  113        8.447381  -0.000000
  114        8.559884  -0.000000
  115        8.719524  -0.000000
  116        8.800236  -0.000000
  117        8.881611  -0.000000
  118        8.916811  -0.000000
  119        8.971352  -0.000000
  120        9.015026  -0.000000
 
  0.2000000E+00  0.2000000E+00 -0.4857226E-16  0.1600000E-01
    1      -47.341031   1.000000
    2      -47.335036   1.000000
    3      -47.186136   1.000000
    4      -47.108546   1.000000
    5      -47.103271   1.000000
    6      -46.931939   1.000000
    7      -23.876855   1.000000
    8      -23.770565   1.000000
    9      -23.672595   1.000000
   10      -23.626716   1.000000
   11      -23.503372   1.000000
   12      -23.484237   1.000000
   13      -23.396195   1.000000
   14      -23.374190   1.000000
   15      -23.342894   1.000000
   16      -23.301473   1.000000
   17      -23.290753   1.000000
   18      -23.238643   1.000000
   19      -23.149586   1.000000
   20      -23.125853   1.000000
   21      -23.094616   1.000000
   22      -23.049555   1.000000
   23      -22.986012   1.000000
   24      -22.766007   1.000000
   25       -0.206702   1.000000
   26        1.075289   1.000000
   27        1.444157   1.000000
   28        2.048066   1.000000
   29        2.233062   1.000000
   30        2.391029   1.000000
   31        2.441757   1.000000
   32        2.512249   1.000000
   33        2.692159   1.000000
   34        2.785489   1.000000
   35        2.853780   1.000000
   36        2.919123   1.000000
   37        2.971497   1.000000
   38        3.046112   1.000000
   39        3.135281   1.000000
   40        3.189697   1.000000
   41        3.269695   1.000000
   42        3.320505   1.000000
   43        3.449898   1.000000
   44        3.471128   1.000000
   45        3.605595   1.000000
   46        3.668727   1.000000
   47        3.721888   1.000000
   48        3.818465   1.000000
   49        3.854985   1.000000
   50        3.921603   1.000000
   51        3.986255   1.000000
   52        4.015763   1.000000
   53        4.132720   1.000000
   54        4.211516   1.000000
   55        4.261304   1.000000
   56        4.288183   1.000000
   57        4.449978   1.000000
   58        4.464186   1.000000
   59        4.569626   1.000000
   60        4.634157   1.000000
   61        4.697660   1.000000
   62        4.765653   1.000000
   63        4.812894   1.000000
   64        4.861212   1.000000
   65        4.929068   1.000000
   66        4.982346   1.000000
   67        5.020381   1.000000
   68        5.091599   1.000000
   69        5.131848   1.000000
   70        5.191136   1.000000
   71        5.222760   1.000000
   72        5.260041   1.000000
   73        5.311650   1.000000
   74        5.351869   1.000000
   75        5.404070   1.000000
   76        5.470798   1.000000
   77        5.592844   1.000000
   78        5.640209   1.000000
   79        5.684352   1.000000
   80        5.712652   1.000000
   81        5.790544   1.000000
   82        5.839199   1.000000
   83        5.925844   1.000000
   84        5.999909   1.000000
   85        6.062724   1.000000
   86        6.106607   1.000000
   87        6.196627   1.000010
   88        6.220908   1.000022
   89        6.272317   1.000097
   90        6.329395   1.000436
   91        6.414910   1.002922
   92        6.460957   1.006783
   93        6.560532   1.025288
   94        6.601287   1.033484
   95        6.644914   1.033892
   96        6.708327   0.993296
   97        6.832496   0.659322
   98        6.917202   0.309879
   99        6.925971   0.276575
  100        7.011414   0.039276
  101        7.082549  -0.030155
  102        7.159489  -0.030108
  103        7.224349  -0.015727
  104        7.256922  -0.009958
  105        7.302238  -0.004668
  106        7.373528  -0.001092
  107        7.442932  -0.000200
  108        7.655402  -0.000000
  109        7.712655  -0.000000
  110        7.956112  -0.000000
  111        8.140653  -0.000000
  112        8.194194  -0.000000
  113        8.423087  -0.000000
  114        8.540612  -0.000000
  115        8.645077  -0.000000
  116        8.742545  -0.000000
  117        8.859741  -0.000000
  118        8.937633  -0.000000
  119        9.028502  -0.000000
  120        9.064156  -0.000000
 
  0.4000000E+00  0.2000000E+00 -0.5551115E-16  0.1600000E-01
    1      -47.340469   1.000000
    2      -47.325978   1.000000
    3      -47.185231   1.000000
    4      -47.107904   1.000000
    5      -47.102642   1.000000
    6      -46.941797   1.000000
    7      -23.775322   1.000000
    8      -23.689595   1.000000
    9      -23.637828   1.000000
   10      -23.576989   1.000000
   11      -23.506593   1.000000
   12      -23.474634   1.000000
   13      -23.404951   1.000000
   14      -23.379083   1.000000
   15      -23.351957   1.000000
   16      -23.308755   1.000000
   17      -23.302326   1.000000
   18      -23.243723   1.000000
   19      -23.157997   1.000000
   20      -23.133611   1.000000
   21      -23.110644   1.000000
   22      -23.062094   1.000000
   23      -23.045730   1.000000
   24      -22.972601   1.000000
   25        0.532626   1.000000
   26        1.499425   1.000000
   27        1.915978   1.000000
   28        2.152993   1.000000
   29        2.262171   1.000000
   30        2.445522   1.000000
   31        2.741415   1.000000
   32        2.974284   1.000000
   33        3.051207   1.000000
   34        3.154046   1.000000
   35        3.234122   1.000000
   36        3.287110   1.000000
   37        3.346825   1.000000
   38        3.414924   1.000000
   39        3.498877   1.000000
   40        3.528502   1.000000
   41        3.581131   1.000000
   42        3.600782   1.000000
   43        3.690585   1.000000
   44        3.700691   1.000000
   45        3.758894   1.000000
   46        3.859210   1.000000
   47        3.904947   1.000000
   48        4.001877   1.000000
   49        4.070063   1.000000
   50        4.085775   1.000000
   51        4.142682   1.000000
   52        4.215961   1.000000
   53        4.264935   1.000000
   54        4.358510   1.000000
   55        4.406597   1.000000
   56        4.455317   1.000000
   57        4.551000   1.000000
   58        4.624658   1.000000
   59        4.725877   1.000000
   60        4.761903   1.000000
   61        4.830155   1.000000
   62        4.877259   1.000000
   63        4.926344   1.000000
   64        4.983614   1.000000
   65        5.004188   1.000000
   66        5.039614   1.000000
   67        5.083229   1.000000
   68        5.175296   1.000000
   69        5.216443   1.000000
   70        5.250334   1.000000
   71        5.290872   1.000000
   72        5.311534   1.000000
   73        5.396165   1.000000
   74        5.430132   1.000000
   75        5.489019   1.000000
   76        5.584287   1.000000
   77        5.618938   1.000000
   78        5.642136   1.000000
   79        5.704558   1.000000
   80        5.798205   1.000000
   81        5.830095   1.000000
   82        5.846082   1.000000
   83        5.908335   1.000000
   84        5.994421   1.000000
   85        6.003816   1.000000
   86        6.035310   1.000000
   87        6.104876   1.000000
   88        6.113245   1.000001
   89        6.169292   1.000004
   90        6.230646   1.000029
   91        6.289931   1.000157
   92        6.320243   1.000347
   93        6.347915   1.000682
   94        6.411973   1.002757
   95        6.442075   1.004881
   96        6.468788   1.007722
   97        6.532593   1.018912
   98        6.566468   1.026648
   99        6.619136   1.035286
  100        6.683256   1.017489
  101        6.734477   0.953520
  102        6.834924   0.649627
  103        6.924428   0.282341
  104        7.043485  -0.004416
  105        7.096037  -0.033730
  106        7.182194  -0.025086
  107        7.300282  -0.004836
  108        7.327332  -0.002899
  109        7.477872  -0.000077
  110        7.522606  -0.000020
  111        7.753663  -0.000000
  112        7.939479  -0.000000
  113        8.048346  -0.000000
  114        8.094957  -0.000000
  115        8.207263  -0.000000
  116        8.314225  -0.000000
  117        8.384811  -0.000000
  118        8.414645  -0.000000
  119        8.502435  -0.000000
  120        8.609208  -0.000000
 
 -0.4000000E+00  0.2000000E+00 -0.3908332E-16  0.1600000E-01
    1      -47.340302   1.000000
    2      -47.325971   1.000000
    3      -47.185225   1.000000
    4      -47.108084   1.000000
    5      -47.102632   1.000000
    6      -46.941794   1.000000
    7      -23.772175   1.000000
    8      -23.687159   1.000000
    9      -23.636122   1.000000
   10      -23.577034   1.000000
   11      -23.506763   1.000000
   12      -23.474840   1.000000
   13      -23.405135   1.000000
   14      -23.379118   1.000000
   15      -23.351984   1.000000
   16      -23.308863   1.000000
   17      -23.302319   1.000000
   18      -23.243706   1.000000
   19      -23.158009   1.000000
   20      -23.133710   1.000000
   21      -23.110827   1.000000
   22      -23.067044   1.000000
   23      -23.048756   1.000000
   24      -22.972798   1.000000
   25        0.855680   1.000000
   26        1.492409   1.000000
   27        1.795784   1.000000
   28        2.245179   1.000000
   29        2.266831   1.000000
   30        2.538926   1.000000
   31        2.714124   1.000000
   32        2.862629   1.000000
   33        3.005955   1.000000
   34        3.079793   1.000000
   35        3.167873   1.000000
   36        3.234542   1.000000
   37        3.311302   1.000000
   38        3.370386   1.000000
   39        3.400835   1.000000
   40        3.463827   1.000000
   41        3.525427   1.000000
   42        3.590015   1.000000
   43        3.705414   1.000000
   44        3.748864   1.000000
   45        3.828673   1.000000
   46        3.943411   1.000000
   47        3.983657   1.000000
   48        4.028574   1.000000
   49        4.132150   1.000000
   50        4.194552   1.000000
   51        4.218169   1.000000
   52        4.272956   1.000000
   53        4.446541   1.000000
   54        4.469562   1.000000
   55        4.527841   1.000000
   56        4.563594   1.000000
   57        4.615384   1.000000
   58        4.651177   1.000000
   59        4.696232   1.000000
   60        4.780381   1.000000
   61        4.810153   1.000000
   62        4.877007   1.000000
   63        4.935371   1.000000
   64        4.959001   1.000000
   65        5.016928   1.000000
   66        5.063104   1.000000
   67        5.078894   1.000000
   68        5.111550   1.000000
   69        5.170166   1.000000
   70        5.206028   1.000000
   71        5.246069   1.000000
   72        5.285487   1.000000
   73        5.328299   1.000000
   74        5.377342   1.000000
   75        5.415295   1.000000
   76        5.476993   1.000000
   77        5.567892   1.000000
   78        5.640377   1.000000
   79        5.729640   1.000000
   80        5.777227   1.000000
   81        5.804473   1.000000
   82        5.891686   1.000000
   83        5.927203   1.000000
   84        5.970828   1.000000
   85        6.014304   1.000000
   86        6.062296   1.000000
   87        6.101164   1.000000
   88        6.143340   1.000002
   89        6.208082   1.000014
   90        6.242470   1.000041
   91        6.279126   1.000117
   92        6.373605   1.001229
   93        6.387190   1.001652
   94        6.456274   1.006265
   95        6.472468   1.008196
   96        6.581750   1.029982
   97        6.594192   1.032353
   98        6.652194   1.032315
   99        6.685567   1.015767
  100        6.752982   0.915346
  101        6.779652   0.845198
  102        6.812053   0.737545
  103        6.918653   0.304281
  104        6.973666   0.122468
  105        7.036985   0.002602
  106        7.081633  -0.029828
  107        7.183270  -0.024837
  108        7.222731  -0.016055
  109        7.272583  -0.007783
  110        7.395416  -0.000659
  111        7.495684  -0.000046
  112        7.736500  -0.000000
  113        7.848308  -0.000000
  114        7.908603  -0.000000
  115        8.001910  -0.000000
  116        8.151786  -0.000000
  117        8.271821  -0.000000
  118        8.365505  -0.000000
  119        8.385001  -0.000000
  120        8.464022  -0.000000
 
 -0.2000000E+00  0.2000000E+00  0.1006140E-15  0.1600000E-01
    1      -47.340765   1.000000
    2      -47.335019   1.000000
    3      -47.186126   1.000000
    4      -47.108836   1.000000
    5      -47.103256   1.000000
    6      -46.931933   1.000000
    7      -23.876880   1.000000
    8      -23.764802   1.000000
    9      -23.667951   1.000000
   10      -23.625373   1.000000
   11      -23.503685   1.000000
   12      -23.484543   1.000000
   13      -23.396524   1.000000
   14      -23.374257   1.000000
   15      -23.342923   1.000000
   16      -23.301457   1.000000
   17      -23.290894   1.000000
   18      -23.238630   1.000000
   19      -23.149657   1.000000
   20      -23.126051   1.000000
   21      -23.094882   1.000000
   22      -23.061988   1.000000
   23      -22.986642   1.000000
   24      -22.766035   1.000000
   25        0.025981   1.000000
   26        1.139738   1.000000
   27        1.504665   1.000000
   28        1.788806   1.000000
   29        2.150417   1.000000
   30        2.478279   1.000000
   31        2.574537   1.000000
   32        2.699897   1.000000
   33        2.774374   1.000000
   34        2.831413   1.000000
   35        2.842280   1.000000
   36        2.951904   1.000000
   37        2.986348   1.000000
   38        3.049815   1.000000
   39        3.095260   1.000000
   40        3.152571   1.000000
   41        3.237452   1.000000
   42        3.303916   1.000000
   43        3.389103   1.000000
   44        3.411893   1.000000
   45        3.454022   1.000000
   46        3.621443   1.000000
   47        3.730304   1.000000