       N       E                     dE             d eps       ncg     rms          rms(c)
DAV:   1     0.210437948180E+04    0.21044E+04   -0.94066E+04 15120   0.177E+03
DAV:   2     0.527174871391E+02   -0.20517E+04   -0.19924E+04 15136   0.531E+02
DAV:   3    -0.307228850385E+03   -0.35995E+03   -0.34307E+03 26456   0.176E+02
DAV:   4    -0.351250091216E+03   -0.44021E+02   -0.40739E+02 23320   0.581E+01
DAV:   5    -0.356191286450E+03   -0.49412E+01   -0.48033E+01 28880   0.216E+01    0.760E+01
DAV:   6    -0.346081795275E+03    0.10109E+02   -0.10972E+02 21120   0.295E+01    0.373E+01
DAV:   7    -0.358690590626E+03   -0.12609E+02   -0.38124E+02 21640   0.739E+01    0.258E+01
DAV:   8    -0.341952874881E+03    0.16738E+02   -0.44795E+01 20640   0.222E+01    0.137E+01
DAV:   9    -0.337288794634E+03    0.46641E+01   -0.11596E+01 22696   0.102E+01    0.101E+01
DAV:  10    -0.335482429467E+03    0.18064E+01   -0.54934E+00 22328   0.680E+00    0.721E+00
DAV:  11    -0.334696010427E+03    0.78642E+00   -0.43501E+00 21976   0.567E+00    0.310E+00
DAV:  12    -0.334680488656E+03    0.15522E-01   -0.16114E+00 22920   0.355E+00    0.264E+00
DAV:  13    -0.334640486153E+03    0.40003E-01   -0.11023E+00 21944   0.324E+00    0.159E+00
DAV:  14    -0.334603701468E+03    0.36785E-01   -0.25756E-01 23168   0.170E+00    0.841E-01
DAV:  15    -0.334598372543E+03    0.53289E-02   -0.12542E-01 23168   0.107E+00    0.664E-01
DAV:  16    -0.334596669484E+03    0.17031E-02   -0.55436E-02 23000   0.652E-01    0.461E-01
DAV:  17    -0.334594896666E+03    0.17728E-02   -0.13864E-02 21512   0.342E-01    0.226E-01
DAV:  18    -0.334594512622E+03    0.38404E-03   -0.47057E-03 20616   0.236E-01    0.141E-01
DAV:  19    -0.334594428089E+03    0.84533E-04   -0.32591E-03 20480   0.173E-01    0.865E-02
DAV:  20    -0.334594378663E+03    0.49425E-04   -0.10955E-03 18584   0.103E-01    0.543E-02
DAV:  21    -0.334594341419E+03    0.37244E-04   -0.28492E-04 12240   0.668E-02
   1 F= -.33459434E+03 E0= -.33459099E+03  d E =-.334594E+03
       N       E                     dE             d eps       ncg     rms          rms(c)
DAV:   1    -0.335763777941E+03   -0.11694E+01   -0.14980E+02 16464   0.507E+01    0.124E+01
DAV:   2    -0.336180942755E+03   -0.41716E+00   -0.23425E+01 22912   0.206E+01    0.802E+00
DAV:   3    -0.335655703613E+03    0.52524E+00   -0.13047E+01 21944   0.114E+01    0.666E+00
DAV:   4    -0.335194953971E+03    0.46075E+00   -0.75955E+00 23064   0.904E+00    0.376E+00
DAV:   5    -0.334986824076E+03    0.20813E+00   -0.26894E+00 22320   0.544E+00    0.217E+00
DAV:   6    -0.334914255950E+03    0.72568E-01   -0.71952E-01 25200   0.262E+00    0.126E+00
DAV:   7    -0.334921101203E+03   -0.68453E-02   -0.18670E-01 22728   0.143E+00    0.973E-01
DAV:   8    -0.334922208614E+03   -0.11074E-02   -0.97174E-02 24224   0.957E-01    0.774E-01
DAV:   9    -0.334924105777E+03   -0.18972E-02   -0.47114E-02 22768   0.644E-01    0.520E-01
DAV:  10    -0.334926734243E+03   -0.26285E-02   -0.23966E-02 24472   0.491E-01    0.328E-01
DAV:  11    -0.334928049917E+03   -0.13157E-02   -0.14039E-02 22784   0.391E-01    0.189E-01
DAV:  12    -0.334928145991E+03   -0.96073E-04   -0.70532E-03 23144   0.230E-01    0.119E-01
DAV:  13    -0.334928186583E+03   -0.40593E-04   -0.17204E-03 20656   0.119E-01    0.576E-02
DAV:  14    -0.334928180703E+03    0.58799E-05   -0.31184E-04 12000   0.699E-02
   2 F= -.33492818E+03 E0= -.33492663E+03  d E =-.333839E+00
       N       E                     dE             d eps       ncg     rms          rms(c)
DAV:   1    -0.335045298820E+03   -0.11711E+00   -0.11140E+01 17600   0.139E+01    0.342E+00
DAV:   2    -0.335081290316E+03   -0.35991E-01   -0.16798E+00 24088   0.552E+00    0.248E+00
DAV:   3    -0.335055417300E+03    0.25873E-01   -0.13208E+00 22160   0.376E+00    0.191E+00
DAV:   4    -0.335006325634E+03    0.49092E-01   -0.44016E-01 23256   0.217E+00    0.993E-01
DAV:   5    -0.334989120707E+03    0.17205E-01   -0.19351E-01 22224   0.140E+00    0.586E-01
DAV:   6    -0.334984523650E+03    0.45971E-02   -0.61278E-02 23912   0.797E-01    0.345E-01
DAV:   7    -0.334984850213E+03   -0.32656E-03   -0.17182E-02 22928   0.417E-01    0.266E-01
DAV:   8    -0.334984762508E+03    0.87705E-04   -0.76987E-03 21216   0.263E-01    0.208E-01
DAV:   9    -0.334984824710E+03   -0.62202E-04   -0.36442E-03 20816   0.180E-01    0.148E-01
DAV:  10    -0.334985014086E+03   -0.18938E-03   -0.19907E-03 20888   0.142E-01    0.921E-02
DAV:  11    -0.334985081842E+03   -0.67757E-04   -0.12542E-03 20304   0.116E-01    0.582E-02
DAV:  12    -0.334985061431E+03    0.20412E-04   -0.53704E-04 15312   0.785E-02
   3 F= -.33498506E+03 E0= -.33498302E+03  d E =-.390720E+00
       N       E                     dE             d eps       ncg     rms          rms(c)
DAV:   1    -0.335006085773E+03   -0.21004E-01   -0.74858E+01 15320   0.309E+01    0.343E+00
DAV:   2    -0.335369185946E+03   -0.36310E+00   -0.53972E+00 20248   0.912E+00    0.209E+00
DAV:   3    -0.335393209649E+03   -0.24024E-01   -0.10756E+00 22824   0.376E+00    0.194E+00
DAV:   4    -0.335346924816E+03    0.46285E-01   -0.38460E-01 22272   0.189E+00    0.109E+00
DAV:   5    -0.335345870808E+03    0.10540E-02   -0.15025E-01 23072   0.129E+00    0.865E-01
DAV:   6    -0.335337928616E+03    0.79422E-02   -0.12008E-01 23696   0.112E+00    0.474E-01
DAV:   7    -0.335334496647E+03    0.34320E-02   -0.36064E-02 24544   0.590E-01    0.257E-01
DAV:   8    -0.335334586363E+03   -0.89716E-04   -0.86578E-03 22272   0.259E-01    0.218E-01
DAV:   9    -0.335334455702E+03    0.13066E-03   -0.18738E-03 19960   0.138E-01    0.175E-01
DAV:  10    -0.335334624059E+03   -0.16836E-03   -0.11408E-03 18888   0.113E-01    0.133E-01
DAV:  11    -0.335334771236E+03   -0.14718E-03   -0.21711E-03 19096   0.155E-01    0.936E-02
DAV:  12    -0.335334624382E+03    0.14685E-03   -0.12365E-03 18952   0.124E-01    0.335E-02
DAV:  13    -0.335334606347E+03    0.18035E-04   -0.13506E-04  9320   0.568E-02
   4 F= -.33533461E+03 E0= -.33533384E+03  d E =-.349545E+00
       N       E                     dE             d eps       ncg     rms          rms(c)
DAV:   1    -0.335297351586E+03    0.37273E-01   -0.22734E+01 16120   0.169E+01    0.180E+00
DAV:   2    -0.335398924866E+03   -0.10157E+00   -0.15141E+00 20616   0.477E+00    0.117E+00
DAV:   3    -0.335404859755E+03   -0.59349E-02   -0.32504E-01 23288   0.199E+00    0.106E+00
DAV:   4    -0.335390672143E+03    0.14188E-01   -0.11236E-01 22064   0.104E+00    0.590E-01
DAV:   5    -0.335390686953E+03   -0.14810E-04   -0.46944E-02 23048   0.714E-01    0.476E-01
DAV:   6    -0.335387864965E+03    0.28220E-02   -0.35494E-02 23904   0.602E-01    0.250E-01
DAV:   7    -0.335386949228E+03    0.91574E-03   -0.93297E-03 23064   0.300E-01    0.141E-01
DAV:   8    -0.335386999600E+03   -0.50371E-04   -0.21361E-03 20616   0.128E-01    0.120E-01
DAV:   9    -0.335386975920E+03    0.23679E-04   -0.47047E-04 13672   0.766E-02
   5 F= -.33538698E+03 E0= -.33538648E+03  d E =-.401914E+00
       N       E                     dE             d eps       ncg     rms          rms(c)
DAV:   1    -0.335420029016E+03   -0.33029E-01   -0.61785E+00 15120   0.921E+00    0.133E+00
DAV:   2    -0.335461005034E+03   -0.40976E-01   -0.62141E-01 22128   0.311E+00    0.114E+00
DAV:   3    -0.335451841157E+03    0.91639E-02   -0.24190E-01 22584   0.160E+00    0.768E-01
DAV:   4    -0.335445304136E+03    0.65370E-02   -0.63890E-02 21760   0.881E-01    0.439E-01
DAV:   5    -0.335443002907E+03    0.23012E-02   -0.38486E-02 22344   0.628E-01    0.259E-01
DAV:   6    -0.335441949792E+03    0.10531E-02   -0.11562E-02 24920   0.339E-01    0.128E-01
DAV:   7    -0.335441913955E+03    0.35838E-04   -0.25368E-03 22664   0.165E-01    0.102E-01
DAV:   8    -0.335441889990E+03    0.23964E-04   -0.10022E-03 17632   0.947E-02    0.803E-02
DAV:   9    -0.335441894406E+03   -0.44155E-05   -0.29491E-04 11872   0.675E-02
   6 F= -.33544189E+03 E0= -.33544143E+03  d E =-.549185E-01
       N       E                     dE             d eps       ncg     rms          rms(c)
DAV:   1    -0.335439005949E+03    0.28840E-02   -0.65517E+00 15120   0.948E+00    0.138E+00
DAV:   2    -0.335482300952E+03   -0.43295E-01   -0.65951E-01 22120   0.321E+00    0.118E+00
DAV:   3    -0.335472290713E+03    0.10010E-01   -0.26035E-01 22624   0.165E+00    0.797E-01
DAV:   4    -0.335465155373E+03    0.71353E-02   -0.68246E-02 21720   0.914E-01    0.455E-01
DAV:   5    -0.335462697259E+03    0.24581E-02   -0.41303E-02 22344   0.653E-01    0.268E-01
DAV:   6    -0.335461565610E+03    0.11316E-02   -0.12637E-02 24848   0.354E-01    0.133E-01
DAV:   7    -0.335461515483E+03    0.50127E-04   -0.27540E-03 22816   0.175E-01    0.105E-01
DAV:   8    -0.335461485191E+03    0.30292E-04   -0.11152E-03 18288   0.993E-02    0.813E-02
DAV:   9    -0.335461488551E+03   -0.33599E-05   -0.32429E-04 12264   0.686E-02
   7 F= -.33546149E+03 E0= -.33546100E+03  d E =-.745126E-01
       N       E                     dE             d eps       ncg     rms          rms(c)
DAV:   1    -0.335493744273E+03   -0.32259E-01   -0.39321E+00 15408   0.784E+00    0.150E+00
DAV:   2    -0.335503479994E+03   -0.97357E-02   -0.43185E-01 21680   0.254E+00    0.799E-01
DAV:   3    -0.335505000544E+03   -0.15206E-02   -0.16772E-01 21168   0.141E+00    0.771E-01
DAV:   4    -0.335496278248E+03    0.87223E-02   -0.87977E-02 21704   0.965E-01    0.397E-01
DAV:   5    -0.335493645066E+03    0.26332E-02   -0.25350E-02 22368   0.561E-01    0.237E-01
DAV:   6    -0.335493240317E+03    0.40475E-03   -0.12294E-02 23536   0.324E-01    0.157E-01
DAV:   7    -0.335493057968E+03    0.18235E-03   -0.37321E-03 21432   0.192E-01    0.977E-02
DAV:   8    -0.335493054160E+03    0.38078E-05   -0.83202E-04 17168   0.960E-02
   8 F= -.33549305E+03 E0= -.33549254E+03  d E =-.315656E-01
       N       E                     dE             d eps       ncg     rms          rms(c)
DAV:   1    -0.335500418740E+03   -0.73608E-02   -0.28839E+00 15376   0.673E+00    0.128E+00
DAV:   2    -0.335507137602E+03   -0.67189E-02   -0.31127E-01 21360   0.219E+00    0.662E-01
DAV:   3    -0.335508391249E+03   -0.12536E-02   -0.11659E-01 21048   0.119E+00    0.629E-01
DAV:   4    -0.335502300198E+03    0.60911E-02   -0.59306E-02 21752   0.820E-01    0.323E-01
DAV:   5    -0.335500739684E+03    0.15605E-02   -0.17703E-02 22648   0.478E-01    0.207E-01
DAV:   6    -0.335500448234E+03    0.29145E-03   -0.83715E-03 23184   0.263E-01    0.137E-01
DAV:   7    -0.335500378363E+03    0.69871E-04   -0.21446E-03 21408   0.149E-01    0.921E-02
DAV:   8    -0.335500413743E+03   -0.35380E-04   -0.47160E-04 13968   0.741E-02
   9 F= -.33550041E+03 E0= -.33549985E+03  d E =-.389252E-01
       N       E                     dE             d eps       ncg     rms          rms(c)
DAV:   1    -0.335505148043E+03   -0.47697E-02   -0.86003E-01 16128   0.322E+00    0.222E-01
DAV:   2    -0.335510716593E+03   -0.55686E-02   -0.62734E-02 22496   0.104E+00    0.248E-01
DAV:   3    -0.335510260722E+03    0.45587E-03   -0.10490E-02 23768   0.336E-01    0.160E-01
DAV:   4    -0.335510018882E+03    0.24184E-03   -0.17031E-03 20264   0.144E-01    0.109E-01
DAV:   5    -0.335510014477E+03    0.44046E-05   -0.75506E-04 16800   0.100E-01
  10 F= -.33551001E+03 E0= -.33550948E+03  d E =-.960073E-02
       N       E                     dE             d eps       ncg     rms          rms(c)
DAV:   1    -0.335487005000E+03    0.23014E-01   -0.77307E+00 16328   0.966E+00    0.691E-01
DAV:   2    -0.335531903129E+03   -0.44898E-01   -0.51798E-01 23064   0.295E+00    0.577E-01
DAV:   3    -0.335531037743E+03    0.86539E-03   -0.59266E-02 23776   0.829E-01    0.420E-01
DAV:   4    -0.335529396276E+03    0.16415E-02   -0.13981E-02 23168   0.388E-01    0.300E-01
DAV:   5    -0.335529349090E+03    0.47186E-04   -0.61722E-03 21792   0.273E-01    0.254E-01
DAV:   6    -0.335528993636E+03    0.35545E-03   -0.91652E-03 22832   0.298E-01    0.171E-01
DAV:   7    -0.335528449989E+03    0.54365E-03   -0.32847E-03 22104   0.184E-01    0.493E-02
DAV:   8    -0.335528447865E+03    0.21239E-05   -0.56515E-04 16224   0.776E-02
  11 F= -.33552845E+03 E0= -.33552795E+03  d E =-.280341E-01
       N       E                     dE             d eps       ncg     rms          rms(c)
DAV:   1    -0.335364711871E+03    0.16374E+00   -0.31193E+01 16632   0.194E+01    0.148E+00
DAV:   2    -0.335537373698E+03   -0.17266E+00   -0.20191E+00 23528   0.581E+00    0.121E+00
DAV:   3    -0.335529957133E+03    0.74166E-02   -0.22843E-01 24224   0.174E+00    0.831E-01
DAV:   4    -0.335525785113E+03    0.41720E-02   -0.55257E-02 22352   0.742E-01    0.635E-01
DAV:   5    -0.335524520725E+03    0.12644E-02   -0.16922E-02 22016   0.459E-01    0.503E-01
DAV:   6    -0.335525083565E+03   -0.56284E-03   -0.33177E-02 23024   0.569E-01    0.434E-01
DAV:   7    -0.335521733317E+03    0.33502E-02   -0.18549E-02 24040   0.433E-01    0.114E-01
DAV:   8    -0.335521659037E+03    0.74279E-04   -0.31993E-03 23872   0.171E-01    0.754E-02
DAV:   9    -0.335521661893E+03   -0.28560E-05   -0.11950E-03 18240   0.106E-01    0.608E-02
DAV:  10    -0.335521613204E+03    0.48689E-04   -0.34489E-04 12720   0.739E-02
  12 F= -.33552161E+03 E0= -.33552120E+03  d E =-.211995E-01
       N       E                     dE             d eps       ncg     rms          rms(c)
DAV:   1    -0.335467988198E+03    0.53674E-01   -0.12071E+01 16328   0.120E+01    0.839E-01
DAV:   2    -0.335537028611E+03   -0.69040E-01   -0.79114E-01 22208   0.361E+00    0.641E-01
DAV:   3    -0.335537431401E+03   -0.40279E-03   -0.95073E-02 24176   0.102E+00    0.522E-01
DAV:   4    -0.335534154266E+03    0.32771E-02   -0.26161E-02 23960   0.539E-01    0.333E-01
DAV:   5    -0.335534075495E+03    0.78772E-04   -0.11565E-02 21920   0.348E-01    0.285E-01
DAV:   6    -0.335533118468E+03    0.95703E-03   -0.10384E-02 22840   0.333E-01    0.143E-01
DAV:   7    -0.335532793484E+03    0.32498E-03   -0.30574E-03 22528   0.167E-01    0.566E-02
DAV:   8    -0.335532787207E+03    0.62767E-05   -0.63999E-04 16072   0.835E-02
  13 F= -.33553279E+03 E0= -.33553232E+03  d E =-.323735E-01
       N       E                     dE             d eps       ncg     rms          rms(c)
DAV:   1    -0.335535979051E+03   -0.31856E-02   -0.88178E-01 15888   0.338E+00    0.510E-01
DAV:   2    -0.335539276180E+03   -0.32971E-02   -0.68260E-02 20960   0.991E-01    0.305E-01
DAV:   3    -0.335539680204E+03   -0.40402E-03   -0.23571E-02 22696   0.524E-01    0.282E-01
DAV:   4    -0.335538281164E+03    0.13990E-02   -0.97720E-03 22496   0.328E-01    0.128E-01
DAV:   5    -0.335538227014E+03    0.54150E-04   -0.45739E-03 21744   0.206E-01    0.109E-01
DAV:   6    -0.335538028447E+03    0.19857E-03   -0.19330E-03 20024   0.130E-01    0.392E-02
DAV:   7    -0.335538008997E+03    0.19451E-04   -0.18868E-04 10624   0.585E-02
  14 F= -.33553801E+03 E0= -.33553749E+03  d E =-.522179E-02
       N       E                     dE             d eps       ncg     rms          rms(c)
DAV:   1    -0.335537919193E+03    0.10925E-03   -0.55155E-01 15888   0.267E+00    0.394E-01
DAV:   2    -0.335540096065E+03   -0.21769E-02   -0.42625E-02 20688   0.786E-01    0.244E-01
DAV:   3    -0.335540296070E+03   -0.20001E-03   -0.15595E-02 22400   0.423E-01    0.224E-01
DAV:   4    -0.335539455155E+03    0.84092E-03   -0.61048E-03 21944   0.263E-01    0.101E-01
DAV:   5    -0.335539394169E+03    0.60986E-04   -0.27462E-03 20976   0.164E-01    0.785E-02
DAV:   6    -0.335539293184E+03    0.10098E-03   -0.95553E-04 17800   0.989E-02    0.309E-02
DAV:   7    -0.335539288618E+03    0.45664E-05   -0.11908E-04  9432   0.516E-02
  15 F= -.33553929E+03 E0= -.33553873E+03  d E =-.650141E-02
       N       E                     dE             d eps       ncg     rms          rms(c)
DAV:   1    -0.335541737372E+03   -0.24442E-02   -0.30625E-01 15640   0.196E+00    0.319E-01
DAV:   2    -0.335542945173E+03   -0.12078E-02   -0.26496E-02 22096   0.618E-01    0.218E-01
DAV:   3    -0.335542898079E+03    0.47094E-04   -0.11082E-02 22200   0.337E-01    0.190E-01
DAV:   4    -0.335542398697E+03    0.49938E-03   -0.44262E-03 20352   0.210E-01    0.955E-02
DAV:   5    -0.335542302282E+03    0.96415E-04   -0.19074E-03 20664   0.142E-01    0.629E-02
DAV:   6    -0.335542236536E+03    0.65747E-04   -0.71000E-04 16144   0.904E-02
  16 F= -.33554224E+03 E0= -.33554165E+03  d E =-.294792E-02
       N       E                     dE             d eps       ncg     rms          rms(c)
DAV:   1    -0.335542576719E+03   -0.27444E-03   -0.80447E-01 15672   0.319E+00    0.499E-01
DAV:   2    -0.335545653481E+03   -0.30768E-02   -0.65250E-02 21120   0.978E-01    0.324E-01
DAV:   3    -0.335545703920E+03   -0.50439E-04   -0.27020E-02 22264   0.537E-01    0.289E-01
DAV:   4    -0.335544456371E+03    0.12475E-02   -0.11058E-02 22080   0.332E-01    0.137E-01
DAV:   5    -0.335544234647E+03    0.22172E-03   -0.41514E-03 22384   0.209E-01    0.900E-02
DAV:   6    -0.335544128060E+03    0.10659E-03   -0.15430E-03 19656   0.122E-01    0.462E-02
DAV:   7    -0.335544110577E+03    0.17482E-04   -0.23169E-04 11048   0.655E-02
  17 F= -.33554411E+03 E0= -.33554349E+03  d E =-.482196E-02
       N       E                     dE             d eps       ncg     rms          rms(c)
DAV:   1    -0.335545016987E+03   -0.88893E-03   -0.69183E-02 16128   0.858E-01    0.583E-02
DAV:   2    -0.335545284895E+03   -0.26791E-03   -0.30765E-03 23872   0.252E-01    0.520E-02
DAV:   3    -0.335545280677E+03    0.42178E-05   -0.49426E-04 14000   0.749E-02
  18 F= -.33554528E+03 E0= -.33554464E+03  d E =-.117010E-02
       N       E                     dE             d eps       ncg     rms          rms(c)
DAV:   1    -0.335545681721E+03   -0.39683E-03   -0.61970E-01 16128   0.257E+00    0.166E-01
DAV:   2    -0.335547938599E+03   -0.22569E-02   -0.27001E-02 24264   0.745E-01    0.147E-01
DAV:   3    -0.335547916220E+03    0.22379E-04   -0.41471E-03 23088   0.217E-01    0.117E-01
DAV:   4    -0.335547749243E+03    0.16698E-03   -0.11860E-03 18136   0.114E-01    0.696E-02
DAV:   5    -0.335547739349E+03    0.98941E-05   -0.60416E-04 15560   0.874E-02
  19 F= -.33554774E+03 E0= -.33554706E+03  d E =-.362877E-02
       N       E                     dE             d eps       ncg     rms          rms(c)
DAV:   1    -0.335548227459E+03   -0.47822E-03   -0.38650E-02 15288   0.755E-01    0.157E-01
DAV:   2    -0.335548304236E+03   -0.76777E-04   -0.43308E-03 22392   0.267E-01    0.943E-02
DAV:   3    -0.335548282290E+03    0.21946E-04   -0.20504E-03 19288   0.150E-01    0.787E-02
DAV:   4    -0.335548199926E+03    0.82364E-04   -0.98792E-04 17128   0.102E-01
  20 F= -.33554820E+03 E0= -.33554751E+03  d E =-.460578E-03
       N       E                     dE             d eps       ncg     rms          rms(c)
DAV:   1    -0.335548528138E+03   -0.24585E-03   -0.18407E-01 15120   0.164E+00    0.335E-01
DAV:   2    -0.335548828886E+03   -0.30075E-03   -0.18211E-02 21768   0.540E-01    0.190E-01
DAV:   3    -0.335549096474E+03   -0.26759E-03   -0.10285E-02 21352   0.325E-01    0.198E-01
DAV:   4    -0.335548398280E+03    0.69819E-03   -0.49660E-03 20264   0.224E-01    0.770E-02
DAV:   5    -0.335548286360E+03    0.11192E-03   -0.10293E-03 17288   0.117E-01    0.476E-02
DAV:   6    -0.335548271254E+03    0.15106E-04   -0.47976E-04 14744   0.778E-02
  21 F= -.33554827E+03 E0= -.33554756E+03  d E =-.531905E-03
