<?xml version="1.0" encoding="ISO-8859-1"?>
<modeling>
 <generator>
  <i name="program" type="string">vasp </i>
  <i name="version" type="string">5.4.4.18Apr17-6-g9f103f2a35  </i>
  <i name="subversion" type="string">(build Aug 09 2018 16:20:53) complex            parallel </i>
  <i name="platform" type="string">LinuxIFC </i>
  <i name="date" type="string">2020 04 12 </i>
  <i name="time" type="string">22:05:59 </i>
 </generator>
 <incar>
  <i type="string" name="SYSTEM"> SQS with 1 vacancy for VFE and VRV</i>
  <i type="string" name="PREC">normal</i>
  <i type="int" name="IALGO">    38</i>
  <i type="int" name="ICHARG">     2</i>
  <i type="int" name="IBRION">     2</i>
  <i type="int" name="NSW">    50</i>
  <i type="int" name="ISIF">     3</i>
  <i type="int" name="ISYM">     0</i>
  <i name="ENCUT">    600.00000000</i>
  <i type="string" name="LREAL"> Auto</i>
  <i type="int" name="ISMEAR">     1</i>
  <i name="SIGMA">      0.20000000</i>
  <v type="int" name="KPOINT_BSE">    -1     0     0     0</v>
  <i type="string" name="GGA"> PS</i>
 </incar>
 <structure name="primitive_cell" >
  <crystal>
   <varray name="basis" >
    <v>      -3.19000000      -3.19000000      -3.19000000 </v>
    <v>       1.59500000       1.59500000      -7.97500000 </v>
    <v>       7.97500000      -7.97500000      -1.59500000 </v>
   </varray>
   <i name="volume">    486.92638500 </i>
   <varray name="rec_basis" >
    <v>      -0.13584117      -0.12539185      -0.05224660 </v>
    <v>       0.04179728       0.06269592      -0.10449321 </v>
    <v>       0.06269592      -0.06269592       0.00000000 </v>
   </varray>
  </crystal>
  <varray name="positions" >
   <v>      -0.03333333      -0.06666667       0.40000000 </v>
   <v>       0.30000000      -0.40000000       0.40000000 </v>
   <v>      -0.10000000      -0.20000000       0.20000000 </v>
   <v>       0.46666667      -0.06666667       0.40000000 </v>
   <v>      -0.13333333      -0.26666667      -0.40000000 </v>
   <v>       0.03333333       0.06666667      -0.40000000 </v>
   <v>      -0.36666667       0.26666667       0.40000000 </v>
   <v>       0.40000000      -0.20000000       0.20000000 </v>
   <v>      -0.20000000      -0.40000000       0.40000000 </v>
   <v>      -0.43333333       0.13333333       0.20000000 </v>
   <v>       0.36666667      -0.26666667      -0.40000000 </v>
   <v>       0.13333333       0.26666667       0.40000000 </v>
   <v>      -0.46666667       0.06666667      -0.40000000 </v>
   <v>       0.23333333       0.46666667       0.20000000 </v>
   <v>       0.20000000       0.40000000      -0.40000000 </v>
   <v>       0.00000000       0.00000000       0.00000000 </v>
   <v>      -0.06666667      -0.13333333      -0.20000000 </v>
   <v>      -0.30000000       0.40000000      -0.40000000 </v>
   <v>      -0.26666667       0.46666667       0.20000000 </v>
   <v>       0.33333333      -0.33333333       0.00000000 </v>
   <v>       0.43333333      -0.13333333      -0.20000000 </v>
   <v>      -0.50000000       0.00000000       0.00000000 </v>
   <v>       0.26666667      -0.46666667      -0.20000000 </v>
   <v>      -0.33333333       0.33333333       0.00000000 </v>
   <v>      -0.40000000       0.20000000      -0.20000000 </v>
   <v>      -0.16666667      -0.33333333       0.00000000 </v>
   <v>      -0.23333333      -0.46666667      -0.20000000 </v>
   <v>       0.16666667       0.33333333       0.00000000 </v>
   <v>       0.10000000       0.20000000      -0.20000000 </v>
  </varray>
 </structure>
 <varray name="primitive_index" >
  <v type="int" >        1 </v>
  <v type="int" >       18 </v>
  <v type="int" >        7 </v>
  <v type="int" >       20 </v>
  <v type="int" >       19 </v>
  <v type="int" >        6 </v>
  <v type="int" >        2 </v>
  <v type="int" >       16 </v>
  <v type="int" >        8 </v>
  <v type="int" >       15 </v>
  <v type="int" >       11 </v>
  <v type="int" >       12 </v>
  <v type="int" >       27 </v>
  <v type="int" >       29 </v>
  <v type="int" >       23 </v>
  <v type="int" >        4 </v>
  <v type="int" >       14 </v>
  <v type="int" >       25 </v>
  <v type="int" >        9 </v>
  <v type="int" >       28 </v>
  <v type="int" >       17 </v>
  <v type="int" >        3 </v>
  <v type="int" >       22 </v>
  <v type="int" >       10 </v>
  <v type="int" >       26 </v>
  <v type="int" >       13 </v>
  <v type="int" >       24 </v>
  <v type="int" >       21 </v>
  <v type="int" >        5 </v>
 </varray>
 <kpoints>
  <generation param="Gamma">
   <v type="int" name="divisions">       5        5        5 </v>
   <v name="usershift">      0.00000000       0.00000000       0.00000000 </v>
   <v name="genvec1">      0.20000000      -0.00000000      -0.00000000 </v>
   <v name="genvec2">      0.00000000       0.20000000       0.00000000 </v>
   <v name="genvec3">      0.00000000       0.00000000       0.20000000 </v>
   <v name="shift">      0.00000000       0.00000000       0.00000000 </v>
  </generation>
  <varray name="kpointlist" >
   <v>       0.00000000       0.00000000       0.00000000 </v>
   <v>       0.20000000      -0.00000000       0.00000000 </v>
   <v>       0.40000000      -0.00000000       0.00000000 </v>
   <v>       0.00000000       0.20000000       0.00000000 </v>
   <v>       0.20000000       0.20000000      -0.00000000 </v>
   <v>       0.40000000       0.20000000      -0.00000000 </v>
   <v>      -0.40000000       0.20000000      -0.00000000 </v>
   <v>      -0.20000000       0.20000000       0.00000000 </v>
   <v>       0.00000000       0.40000000       0.00000000 </v>
   <v>       0.20000000       0.40000000       0.00000000 </v>
   <v>       0.40000000       0.40000000      -0.00000000 </v>
   <v>      -0.40000000       0.40000000       0.00000000 </v>
   <v>      -0.20000000       0.40000000       0.00000000 </v>
   <v>       0.00000000       0.00000000       0.20000000 </v>
   <v>       0.20000000      -0.00000000       0.20000000 </v>
   <v>       0.40000000       0.00000000       0.20000000 </v>
   <v>      -0.40000000       0.00000000       0.20000000 </v>
   <v>      -0.20000000       0.00000000       0.20000000 </v>
   <v>       0.00000000       0.20000000       0.20000000 </v>
   <v>       0.20000000       0.20000000       0.20000000 </v>
   <v>       0.40000000       0.20000000       0.20000000 </v>
   <v>      -0.40000000       0.20000000       0.20000000 </v>
   <v>      -0.20000000       0.20000000       0.20000000 </v>
   <v>       0.00000000       0.40000000       0.20000000 </v>
   <v>       0.20000000       0.40000000       0.20000000 </v>
   <v>       0.40000000       0.40000000       0.20000000 </v>
   <v>      -0.40000000       0.40000000       0.20000000 </v>
   <v>      -0.20000000       0.40000000       0.20000000 </v>
   <v>       0.00000000      -0.40000000       0.20000000 </v>
   <v>       0.20000000      -0.40000000       0.20000000 </v>
   <v>       0.40000000      -0.40000000       0.20000000 </v>
   <v>      -0.40000000      -0.40000000       0.20000000 </v>
   <v>      -0.20000000      -0.40000000       0.20000000 </v>
   <v>       0.00000000      -0.20000000       0.20000000 </v>
   <v>       0.20000000      -0.20000000       0.20000000 </v>
   <v>       0.40000000      -0.20000000       0.20000000 </v>
   <v>      -0.40000000      -0.20000000       0.20000000 </v>
   <v>      -0.20000000      -0.20000000       0.20000000 </v>
   <v>       0.00000000       0.00000000       0.40000000 </v>
   <v>       0.20000000      -0.00000000       0.40000000 </v>
   <v>       0.40000000      -0.00000000       0.40000000 </v>
   <v>      -0.40000000       0.00000000       0.40000000 </v>
   <v>      -0.20000000       0.00000000       0.40000000 </v>
   <v>      -0.00000000       0.20000000       0.40000000 </v>
   <v>       0.20000000       0.20000000       0.40000000 </v>
   <v>       0.40000000       0.20000000       0.40000000 </v>
   <v>      -0.40000000       0.20000000       0.40000000 </v>
   <v>      -0.20000000       0.20000000       0.40000000 </v>
   <v>       0.00000000       0.40000000       0.40000000 </v>
   <v>       0.20000000       0.40000000       0.40000000 </v>
   <v>       0.40000000       0.40000000       0.40000000 </v>
   <v>      -0.40000000       0.40000000       0.40000000 </v>
   <v>      -0.20000000       0.40000000       0.40000000 </v>
   <v>       0.00000000      -0.40000000       0.40000000 </v>
   <v>       0.20000000      -0.40000000       0.40000000 </v>
   <v>       0.40000000      -0.40000000       0.40000000 </v>
   <v>      -0.40000000      -0.40000000       0.40000000 </v>
   <v>      -0.20000000      -0.40000000       0.40000000 </v>
   <v>       0.00000000      -0.20000000       0.40000000 </v>
   <v>       0.20000000      -0.20000000       0.40000000 </v>
   <v>       0.40000000      -0.20000000       0.40000000 </v>
   <v>      -0.40000000      -0.20000000       0.40000000 </v>
   <v>      -0.20000000      -0.20000000       0.40000000 </v>
  </varray>
  <varray name="weights" >
   <v>       0.00800000 </v>
   <v>       0.01600000 </v>
   <v>       0.01600000 </v>
   <v>       0.01600000 </v>
   <v>       0.01600000 </v>
   <v>       0.01600000 </v>
   <v>       0.01600000 </v>
   <v>       0.01600000 </v>
   <v>       0.01600000 </v>
   <v>       0.01600000 </v>
   <v>       0.01600000 </v>
   <v>       0.01600000 </v>
   <v>       0.01600000 </v>
   <v>       0.01600000 </v>
   <v>       0.01600000 </v>
   <v>       0.01600000 </v>
   <v>       0.01600000 </v>
   <v>       0.01600000 </v>
   <v>       0.01600000 </v>
   <v>       0.01600000 </v>
   <v>       0.01600000 </v>
   <v>       0.01600000 </v>
   <v>       0.01600000 </v>
   <v>       0.01600000 </v>
   <v>       0.01600000 </v>
   <v>       0.01600000 </v>
   <v>       0.01600000 </v>
   <v>       0.01600000 </v>
   <v>       0.01600000 </v>
   <v>       0.01600000 </v>
   <v>       0.01600000 </v>
   <v>       0.01600000 </v>
   <v>       0.01600000 </v>
   <v>       0.01600000 </v>
   <v>       0.01600000 </v>
   <v>       0.01600000 </v>
   <v>       0.01600000 </v>
   <v>       0.01600000 </v>
   <v>       0.01600000 </v>
   <v>       0.01600000 </v>
   <v>       0.01600000 </v>
   <v>       0.01600000 </v>
   <v>       0.01600000 </v>
   <v>       0.01600000 </v>
   <v>       0.01600000 </v>
   <v>       0.01600000 </v>
   <v>       0.01600000 </v>
   <v>       0.01600000 </v>
   <v>       0.01600000 </v>
   <v>       0.01600000 </v>
   <v>       0.01600000 </v>
   <v>       0.01600000 </v>
   <v>       0.01600000 </v>
   <v>       0.01600000 </v>
   <v>       0.01600000 </v>
   <v>       0.01600000 </v>
   <v>       0.01600000 </v>
   <v>       0.01600000 </v>
   <v>       0.01600000 </v>
   <v>       0.01600000 </v>
   <v>       0.01600000 </v>
   <v>       0.01600000 </v>
   <v>       0.01600000 </v>
  </varray>
 </kpoints>
 <parameters>
  <separator name="general" >
   <i type="string" name="SYSTEM">SQS with 1 vacancy for VFE and VRV</i>
   <i type="logical" name="LCOMPAT"> F  </i>
  </separator>
  <separator name="electronic" >
   <i type="string" name="PREC">normal</i>
   <i name="ENMAX">    600.00000000</i>
   <i name="ENAUG">    455.65900000</i>
   <i name="EDIFF">      0.00010000</i>
   <i type="int" name="IALGO">    38</i>
   <i type="int" name="IWAVPR">    11</i>
   <i type="int" name="NBANDS">   120</i>
   <i name="NELECT">    200.00000000</i>
   <i type="int" name="TURBO">     0</i>
   <i type="int" name="IRESTART">     0</i>
   <i type="int" name="NREBOOT">     0</i>
   <i type="int" name="NMIN">     0</i>
   <i name="EREF">      0.00000000</i>
   <separator name="electronic smearing" >
    <i type="int" name="ISMEAR">     1</i>
    <i name="SIGMA">      0.20000000</i>
    <i name="KSPACING">      0.50000000</i>
    <i type="logical" name="KGAMMA"> T  </i>
   </separator>
   <separator name="electronic projectors" >
    <i type="logical" name="LREAL"> T  </i>
    <v name="ROPT">     -0.00050000     -0.00050000     -0.00050000     -0.00050000     -0.00050000</v>
    <i type="int" name="LMAXPAW">  -100</i>
    <i type="int" name="LMAXMIX">     2</i>
    <i type="logical" name="NLSPLINE"> F  </i>
   </separator>
   <separator name="electronic startup" >
    <i type="int" name="ISTART">     0</i>
    <i type="int" name="ICHARG">     2</i>
    <i type="int" name="INIWAV">     1</i>
   </separator>
   <separator name="electronic spin" >
    <i type="int" name="ISPIN">     1</i>
    <i type="logical" name="LNONCOLLINEAR"> F  </i>
    <v name="MAGMOM">      1.00000000      1.00000000      1.00000000      1.00000000      1.00000000      1.00000000      1.00000000      1.00000000      1.00000000      1.00000000      1.00000000      1.00000000      1.00000000      1.00000000      1.00000000      1.00000000      1.00000000      1.00000000      1.00000000      1.00000000
      1.00000000      1.00000000      1.00000000      1.00000000      1.00000000      1.00000000      1.00000000      1.00000000      1.00000000</v>
    <i name="NUPDOWN">     -1.00000000</i>
    <i type="logical" name="LSORBIT"> F  </i>
    <v name="SAXIS">      0.00000000      0.00000000      1.00000000</v>
    <i type="logical" name="LSPIRAL"> F  </i>
    <v name="QSPIRAL">      0.00000000      0.00000000      0.00000000</v>
    <i type="logical" name="LZEROZ"> F  </i>
   </separator>
   <separator name="electronic exchange-correlation" >
    <i type="logical" name="LASPH"> F  </i>
    <i type="logical" name="LMETAGGA"> F  </i>
   </separator>
   <separator name="electronic convergence" >
    <i type="int" name="NELM">    60</i>
    <i type="int" name="NELMDL">    -5</i>
    <i type="int" name="NELMIN">     2</i>
    <i name="ENINI">    600.00000000</i>
    <separator name="electronic convergence detail" >
     <i type="logical" name="LDIAG"> T  </i>
     <i type="logical" name="LSUBROT"> F  </i>
     <i name="WEIMIN">      0.00100000</i>
     <i name="EBREAK">      0.00000021</i>
     <i name="DEPER">      0.30000000</i>
     <i type="int" name="NRMM">     4</i>
     <i name="TIME">      0.40000000</i>
    </separator>
   </separator>
   <separator name="electronic mixer" >
    <i name="AMIX">      0.40000000</i>
    <i name="BMIX">      1.00000000</i>
    <i name="AMIN">      0.10000000</i>
    <i name="AMIX_MAG">      1.60000000</i>
    <i name="BMIX_MAG">      1.00000000</i>
    <separator name="electronic mixer details" >
     <i type="int" name="IMIX">     4</i>
     <i type="logical" name="MIXFIRST"> F  </i>
     <i type="int" name="MAXMIX">   -45</i>
     <i name="WC">    100.00000000</i>
     <i type="int" name="INIMIX">     1</i>
     <i type="int" name="MIXPRE">     1</i>
     <i type="int" name="MREMOVE">     5</i>
    </separator>
   </separator>
   <separator name="electronic dipolcorrection" >
    <i type="logical" name="LDIPOL"> F  </i>
    <i type="logical" name="LMONO"> F  </i>
    <i type="int" name="IDIPOL">     0</i>
    <i name="EPSILON">      1.00000000</i>
    <v name="DIPOL">   -100.00000000   -100.00000000   -100.00000000</v>
    <i name="EFIELD">      0.00000000</i>
   </separator>
  </separator>
  <separator name="grids" >
   <i type="int" name="NGX">    36</i>
   <i type="int" name="NGY">    50</i>
   <i type="int" name="NGZ">    70</i>
   <i type="int" name="NGXF">    72</i>
   <i type="int" name="NGYF">   100</i>
   <i type="int" name="NGZF">   140</i>
   <i type="logical" name="ADDGRID"> F  </i>
  </separator>
  <separator name="ionic" >
   <i type="int" name="NSW">    50</i>
   <i type="int" name="IBRION">     2</i>
   <i type="int" name="MDALGO">     0</i>
   <i type="int" name="ISIF">     3</i>
   <i name="PSTRESS">      0.00000000</i>
   <i name="EDIFFG">      0.00100000</i>
   <i type="int" name="NFREE">     1</i>
   <i name="POTIM">      0.50000000</i>
   <i name="SMASS">     -3.00000000</i>
   <i name="SCALEE">      1.00000000</i>
  </separator>
  <separator name="ionic md" >
   <i name="TEBEG">      0.00010000</i>
   <i name="TEEND">      0.00010000</i>
   <i type="int" name="NBLOCK">     1</i>
   <i type="int" name="KBLOCK">    50</i>
   <i type="int" name="NPACO">   256</i>
   <i name="APACO">     16.00000000</i>
  </separator>
  <separator name="symmetry" >
   <i type="int" name="ISYM">     0</i>
   <i name="SYMPREC">      0.00001000</i>
  </separator>
  <separator name="dos" >
   <i type="int" name="LORBIT">     0</i>
   <v name="RWIGS">     -1.00000000     -1.00000000     -1.00000000     -1.00000000     -1.00000000</v>
   <i type="int" name="NEDOS">   301</i>
   <i name="EMIN">     10.00000000</i>
   <i name="EMAX">    -10.00000000</i>
   <i name="EFERMI">      0.00000000</i>
  </separator>
  <separator name="writing" >
   <i type="int" name="NWRITE">     2</i>
   <i type="logical" name="LWAVE"> T  </i>
   <i type="logical" name="LDOWNSAMPLE"> F  </i>
   <i type="logical" name="LCHARG"> T  </i>
   <i type="logical" name="LPARD"> F  </i>
   <i type="logical" name="LVTOT"> F  </i>
   <i type="logical" name="LVHAR"> F  </i>
   <i type="logical" name="LELF"> F  </i>
   <i type="logical" name="LOPTICS"> F  </i>
   <v name="STM">      0.00000000      0.00000000      0.00000000      0.00000000      0.00000000      0.00000000      0.00000000</v>
  </separator>
  <separator name="performance" >
   <i type="int" name="NPAR">     8</i>
   <i type="int" name="NSIM">     4</i>
   <i type="int" name="NBLK">    -1</i>
   <i type="logical" name="LPLANE"> T  </i>
   <i type="logical" name="LSCALAPACK"> T  </i>
   <i type="logical" name="LSCAAWARE"> F  </i>
   <i type="logical" name="LSCALU"> F  </i>
   <i type="logical" name="LASYNC"> F  </i>
   <i type="logical" name="LORBITALREAL"> F  </i>
  </separator>
  <separator name="miscellaneous" >
   <i type="int" name="IDIOT">     3</i>
   <i type="int" name="ISPECIAL">     0</i>
   <i type="logical" name="LMUSIC"> F  </i>
   <v name="POMASS">     92.91000000     95.94000000    180.94800000     47.88000000    183.85000000</v>
   <v name="DARWINR">      0.00000000      0.00000000      0.00000000      0.00000000      0.00000000</v>
   <v name="DARWINV">      1.00000000      1.00000000      1.00000000      1.00000000      1.00000000</v>
   <i type="logical" name="LCORR"> T  </i>
  </separator>
  <i type="logical" name="GGA_COMPAT"> T  </i>
  <i type="logical" name="LBERRY"> F  </i>
  <i type="int" name="ICORELEVEL">     0</i>
  <i type="logical" name="LDAU"> F  </i>
  <i type="int" name="I_CONSTRAINED_M">     0</i>
  <separator name="electronic exchange-correlation" >
   <i type="string" name="GGA">PS</i>
   <i type="int" name="VOSKOWN">     0</i>
   <i type="logical" name="LHFCALC"> F  </i>
   <i type="string" name="PRECFOCK"></i>
   <i type="logical" name="LSYMGRAD"> F  </i>
   <i type="logical" name="LHFONE"> F  </i>
   <i type="logical" name="LRHFCALC"> F  </i>
   <i type="logical" name="LTHOMAS"> F  </i>
   <i type="logical" name="LMODELHF"> F  </i>
   <i name="ENCUT4O">     -1.00000000</i>
   <i type="int" name="EXXOEP">     0</i>
   <i type="int" name="FOURORBIT">     0</i>
   <i name="AEXX">      0.00000000</i>
   <i name="HFALPHA">      0.00000000</i>
   <i name="MCALPHA">      0.00000000</i>
   <i name="ALDAX">      1.00000000</i>
   <i name="AGGAX">      1.00000000</i>
   <i name="ALDAC">      1.00000000</i>
   <i name="AGGAC">      1.00000000</i>
   <i type="int" name="NKREDX">     1</i>
   <i type="int" name="NKREDY">     1</i>
   <i type="int" name="NKREDZ">     1</i>
   <i type="logical" name="SHIFTRED"> F  </i>
   <i type="logical" name="ODDONLY"> F  </i>
   <i type="logical" name="EVENONLY"> F  </i>
   <i type="int" name="LMAXFOCK">     0</i>
   <i type="int" name="NMAXFOCKAE">     0</i>
   <i type="logical" name="LFOCKAEDFT"> F  </i>
   <i name="HFSCREEN">      0.00000000</i>
   <i name="HFSCREENC">      0.00000000</i>
   <i type="int" name="NBANDSGWLOW">     0</i>
  </separator>
  <separator name="vdW DFT" >
   <i type="logical" name="LUSE_VDW"> F  </i>
   <i name="Zab_VDW">     -0.84910000</i>
   <i name="PARAM1">      0.12340000</i>
   <i name="PARAM2">      1.00000000</i>
   <i name="PARAM3">      0.00000000</i>
  </separator>
  <separator name="model GW" >
   <i type="int" name="MODEL_GW">     0</i>
   <i name="MODEL_EPS0">     10.07433900</i>
   <i name="MODEL_ALPHA">      1.00000000</i>
  </separator>
  <separator name="linear response parameters" >
   <i type="logical" name="LEPSILON"> F  </i>
   <i type="logical" name="LRPA"> F  </i>
   <i type="logical" name="LNABLA"> F  </i>
   <i type="logical" name="LVEL"> F  </i>
   <i type="int" name="KINTER">     0</i>
   <i name="CSHIFT">      0.10000000</i>
   <i name="OMEGAMAX">     -1.00000000</i>
   <i name="DEG_THRESHOLD">      0.00200000</i>
   <i name="RTIME">     -0.10000000</i>
   <i name="WPLASMAI">      0.00000000</i>
   <v name="DFIELD">      0.00000000      0.00000000      0.00000000</v>
   <v name="WPLASMA">      0.00000000      0.00000000      0.00000000      0.00000000      0.00000000      0.00000000      0.00000000      0.00000000      0.00000000</v>
  </separator>
  <separator name="orbital magnetization" >
   <i type="logical" name="NUCIND"> F  </i>
   <v name="MAGPOS">      0.00000000      0.00000000      0.00000000</v>
   <i type="logical" name="LNICSALL"> T  </i>
   <i type="logical" name="ORBITALMAG"> F  </i>
   <i type="logical" name="LMAGBLOCH"> F  </i>
   <i type="logical" name="LCHIMAG"> F  </i>
   <i type="logical" name="LGAUGE"> T  </i>
   <i type="int" name="MAGATOM">     0</i>
   <v name="MAGDIPOL">      0.00000000      0.00000000      0.00000000</v>
   <v name="AVECCONST">      0.00000000      0.00000000      0.00000000</v>
  </separator>
  <separator name="response functions" >
   <i type="logical" name="LADDER"> F  </i>
   <i type="logical" name="LRPAFORCE"> F  </i>
   <i type="logical" name="LFXC"> F  </i>
   <i type="logical" name="LHARTREE"> T  </i>
   <i type="int" name="IBSE">     0</i>
   <v type="int" name="KPOINT">    -1     0     0     0</v>
   <i type="logical" name="LTCTE"> F  </i>
   <i type="logical" name="LTETE"> F  </i>
   <i type="logical" name="LTRIPLET"> F  </i>
   <i type="logical" name="LFXCEPS"> F  </i>
   <i type="logical" name="LFXHEG"> F  </i>
   <i type="int" name="NATURALO">     2</i>
   <i type="logical" name="L2ORDER"> F  </i>
   <i type="logical" name="LMP2LT"> F  </i>
   <i type="logical" name="LUSEW"> F  </i>
   <i name="ENCUTGW">     -2.00000000</i>
   <i name="ENCUTGWSOFT">     -2.00000000</i>
   <i name="ENCUTLF">     -1.00000000</i>
   <i type="int" name="LMAXMP2">    -1</i>
   <i name="SCISSOR">      0.00000000</i>
   <i type="int" name="NOMEGA">     0</i>
   <i type="int" name="NOMEGAR">     0</i>
   <i type="int" name="NBANDSGW">    -1</i>
   <i type="int" name="NBANDSO">    -1</i>
   <i type="int" name="NBANDSV">    -1</i>
   <i type="int" name="NELM">     1</i>
   <i type="int" name="NELMHF">     1</i>
   <i type="int" name="DIM">     3</i>
   <i type="int" name="ANTIRES">     0</i>
   <i name="OMEGAMAX">    -30.00000000</i>
   <i name="OMEGAMIN">    -30.00000000</i>
   <i name="OMEGATL">   -200.00000000</i>
   <i type="int" name="OMEGAGRID">   140</i>
   <i name="CSHIFT">     -0.10000000</i>
   <i type="logical" name="SELFENERGY"> F  </i>
   <i type="logical" name="LSPECTRAL"> F  </i>
   <i type="logical" name="LSPECTRALGW"> F  </i>
   <i type="logical" name="LSINGLES"> F  </i>
   <i type="logical" name="LFERMIGW"> F  </i>
   <i type="logical" name="ODDONLYGW"> F  </i>
   <i type="logical" name="EVENONLYGW"> F  </i>
   <i type="int" name="NKREDLFX">     1</i>
   <i type="int" name="NKREDLFY">     1</i>
   <i type="int" name="NKREDLFZ">     1</i>
   <i type="int" name="MAXMEM">  2800</i>
   <i type="int" name="TELESCOPE">     0</i>
   <i type="int" name="TAUPAR">     1</i>
   <i type="int" name="OMEGAPAR">    -1</i>
   <i name="LAMBDA">      1.00000000</i>
  </separator>
  <separator name="External order field" >
   <i name="OFIELD_KAPPA">      0.00000000</i>
   <v name="OFIELD_K">      0.00000000      0.00000000      0.00000000</v>
   <i name="OFIELD_Q6_NEAR">      0.00000000</i>
   <i name="OFIELD_Q6_FAR">      0.00000000</i>
   <i name="OFIELD_A">      0.00000000</i>
  </separator>
  <separator name="solvation model" >
   <i type="logical" name="LSOL"> F  </i>
  </separator>
 </parameters>
 <atominfo>
  <atoms>      29 </atoms>
  <types>       5 </types>
  <array name="atoms" >
   <dimension dim="1">ion</dimension>
   <field type="string">element</field>
   <field type="int">atomtype</field>
   <set>
    <rc><c>Nb</c><c>   1</c></rc>
    <rc><c>Nb</c><c>   1</c></rc>
    <rc><c>Nb</c><c>   1</c></rc>
    <rc><c>Nb</c><c>   1</c></rc>
    <rc><c>Nb</c><c>   1</c></rc>
    <rc><c>Nb</c><c>   1</c></rc>
    <rc><c>Mo</c><c>   2</c></rc>
    <rc><c>Mo</c><c>   2</c></rc>
    <rc><c>Mo</c><c>   2</c></rc>
    <rc><c>Mo</c><c>   2</c></rc>
    <rc><c>Mo</c><c>   2</c></rc>
    <rc><c>Mo</c><c>   2</c></rc>
    <rc><c>Ta</c><c>   3</c></rc>
    <rc><c>Ta</c><c>   3</c></rc>
    <rc><c>Ta</c><c>   3</c></rc>
    <rc><c>Ta</c><c>   3</c></rc>
    <rc><c>Ta</c><c>   3</c></rc>
    <rc><c>Ta</c><c>   3</c></rc>
    <rc><c>Ti</c><c>   4</c></rc>
    <rc><c>Ti</c><c>   4</c></rc>
    <rc><c>Ti</c><c>   4</c></rc>
    <rc><c>Ti</c><c>   4</c></rc>
    <rc><c>Ti</c><c>   4</c></rc>
    <rc><c>W </c><c>   5</c></rc>
    <rc><c>W </c><c>   5</c></rc>
    <rc><c>W </c><c>   5</c></rc>
    <rc><c>W </c><c>   5</c></rc>
    <rc><c>W </c><c>   5</c></rc>
    <rc><c>W </c><c>   5</c></rc>
   </set>
  </array>
  <array name="atomtypes" >
   <dimension dim="1">type</dimension>
   <field type="int">atomspertype</field>
   <field type="string">element</field>
   <field>mass</field>
   <field>valence</field>
   <field type="string">pseudopotential</field>
   <set>
    <rc><c>   6</c><c>Nb</c><c>     92.91000000</c><c>     13.00000000</c><c>  PAW_PBE Nb_sv 25May2007               </c></rc>
    <rc><c>   6</c><c>Mo</c><c>     95.94000000</c><c>      6.00000000</c><c>  PAW_PBE Mo 08Apr2002                  </c></rc>
    <rc><c>   6</c><c>Ta</c><c>    180.94800000</c><c>      5.00000000</c><c>  PAW_PBE Ta 17Jan2003                  </c></rc>
    <rc><c>   5</c><c>Ti</c><c>     47.88000000</c><c>      4.00000000</c><c>  PAW_PBE Ti 08Apr2002                  </c></rc>
    <rc><c>   6</c><c>W </c><c>    183.85000000</c><c>      6.00000000</c><c>  PAW_PBE W 08Apr2002                   </c></rc>
   </set>
  </array>
 </atominfo>
 <structure name="initialpos" >
  <crystal>
   <varray name="basis" >
    <v>      -3.19000000      -3.19000000      -3.19000000 </v>
    <v>       1.59500000       1.59500000      -7.97500000 </v>
    <v>       7.97500000      -7.97500000      -1.59500000 </v>
   </varray>
   <i name="volume">    486.92638500 </i>
   <varray name="rec_basis" >
    <v>      -0.13584117      -0.12539185      -0.05224660 </v>
    <v>       0.04179728       0.06269592      -0.10449321 </v>
    <v>       0.06269592      -0.06269592       0.00000000 </v>
   </varray>
  </crystal>
  <varray name="positions" >
   <v>       0.96666667       0.93333333       0.40000000 </v>
   <v>       0.63333333       0.26666667       0.40000000 </v>
   <v>       0.50000000       0.00000000       0.00000000 </v>
   <v>       0.00000000       0.00000000       0.00000000 </v>
   <v>       0.10000000       0.20000000       0.80000000 </v>
   <v>       0.03333333       0.06666667       0.60000000 </v>
   <v>       0.90000000       0.80000000       0.20000000 </v>
   <v>       0.80000000       0.60000000       0.40000000 </v>
   <v>       0.73333333       0.46666667       0.20000000 </v>
   <v>       0.66666667       0.33333333       0.00000000 </v>
   <v>       0.36666667       0.73333333       0.60000000 </v>
   <v>       0.13333333       0.26666667       0.40000000 </v>
   <v>       0.83333333       0.66666667       0.00000000 </v>
   <v>       0.93333333       0.86666667       0.80000000 </v>
   <v>       0.56666667       0.13333333       0.20000000 </v>
   <v>       0.40000000       0.80000000       0.20000000 </v>
   <v>       0.43333333       0.86666667       0.80000000 </v>
   <v>       0.30000000       0.60000000       0.40000000 </v>
   <v>       0.86666667       0.73333333       0.60000000 </v>
   <v>       0.46666667       0.93333333       0.40000000 </v>
   <v>       0.16666667       0.33333333       0.00000000 </v>
   <v>       0.26666667       0.53333333       0.80000000 </v>
   <v>       0.20000000       0.40000000       0.60000000 </v>
   <v>       0.76666667       0.53333333       0.80000000 </v>
   <v>       0.70000000       0.40000000       0.60000000 </v>
   <v>       0.60000000       0.20000000       0.80000000 </v>
   <v>       0.53333333       0.06666667       0.60000000 </v>
   <v>       0.33333333       0.66666667       0.00000000 </v>
   <v>       0.23333333       0.46666667       0.20000000 </v>
  </varray>
 </structure>
 <calculation>
  <scstep>
   <time name="dav">   18.46   18.48</time>
   <time name="total">   18.49   18.52</time>
   <energy>
    <i name="alphaZ">   1318.14636210 </i>
    <i name="ewald"> -11743.65057922 </i>
    <i name="hartreedc">  -3106.99330652 </i>
    <i name="XCdc">   -868.21023455 </i>
    <i name="pawpsdc">  12179.31920212 </i>
    <i name="pawaedc"> -10655.17440453 </i>
    <i name="eentropy">      0.00591870 </i>
    <i name="bandstr">   1864.50776985 </i>
    <i name="atom">  13116.42875384 </i>
    <i name="e_fr_energy">   2104.37948180 </i>
    <i name="e_wo_entrp">   2104.37356310 </i>
    <i name="e_0_energy">   2104.37750890 </i>
   </energy>
  </scstep>
  <scstep>
   <time name="dav">   18.33   18.36</time>
   <time name="total">   18.33   18.36</time>
   <energy>
    <i name="e_fr_energy">     52.71748714 </i>
    <i name="e_wo_entrp">     52.71870481 </i>
    <i name="e_0_energy">     52.71789303 </i>
   </energy>
  </scstep>
  <scstep>
   <time name="dav">   28.84   28.88</time>
   <time name="total">   28.84   28.88</time>
   <energy>
    <i name="e_fr_energy">   -307.22885039 </i>
    <i name="e_wo_entrp">   -307.23083596 </i>
    <i name="e_0_energy">   -307.22951224 </i>
   </energy>
  </scstep>
  <scstep>
   <time name="dav">   25.99   26.03</time>
   <time name="total">   25.99   26.03</time>
   <energy>
    <i name="e_fr_energy">   -351.25009122 </i>
    <i name="e_wo_entrp">   -351.25038098 </i>
    <i name="e_0_energy">   -351.25018780 </i>
   </energy>
  </scstep>
  <scstep>
   <time name="dav">   31.14   31.18</time>
   <time name="total">   31.71   31.76</time>
   <energy>
    <i name="e_fr_energy">   -356.19128645 </i>
    <i name="e_wo_entrp">   -356.18947600 </i>
    <i name="e_0_energy">   -356.19068297 </i>
   </energy>
  </scstep>
  <scstep>
   <time name="dav">   23.88   23.91</time>
   <time name="total">   24.48   24.51</time>
   <energy>
    <i name="e_fr_energy">   -346.08179528 </i>
    <i name="e_wo_entrp">   -346.08532800 </i>
    <i name="e_0_energy">   -346.08297285 </i>
   </energy>
  </scstep>
  <scstep>
   <time name="dav">   24.38   24.41</time>
   <time name="total">   24.99   25.03</time>
   <energy>
    <i name="e_fr_energy">   -358.69059063 </i>
    <i name="e_wo_entrp">   -358.69060835 </i>
    <i name="e_0_energy">   -358.69059653 </i>
   </energy>
  </scstep>
  <scstep>
   <time name="dav">   23.44   23.47</time>
   <time name="total">   24.05   24.08</time>
   <energy>
    <i name="e_fr_energy">   -341.95287488 </i>
    <i name="e_wo_entrp">   -341.94811282 </i>
    <i name="e_0_energy">   -341.95128753 </i>
   </energy>
  </scstep>
  <scstep>
   <time name="dav">   25.34   25.37</time>
   <time name="total">   25.94   25.97</time>
   <energy>
    <i name="e_fr_energy">   -337.28879463 </i>
    <i name="e_wo_entrp">   -337.27660236 </i>
    <i name="e_0_energy">   -337.28473054 </i>
   </energy>
  </scstep>
  <scstep>
   <time name="dav">   25.01   25.05</time>
   <time name="total">   25.64   26.04</time>
   <energy>
    <i name="e_fr_energy">   -335.48242947 </i>
    <i name="e_wo_entrp">   -335.47833511 </i>
    <i name="e_0_energy">   -335.48106468 </i>
   </energy>
  </scstep>
  <scstep>
   <time name="dav">   24.67   24.71</time>
   <time name="total">   25.29   25.32</time>
   <energy>
    <i name="e_fr_energy">   -334.69601043 </i>
    <i name="e_wo_entrp">   -334.68535343 </i>
    <i name="e_0_energy">   -334.69245809 </i>
   </energy>
  </scstep>
  <scstep>
   <time name="dav">   25.52   25.55</time>
   <time name="total">   26.12   26.15</time>
   <energy>
    <i name="e_fr_energy">   -334.68048866 </i>
    <i name="e_wo_entrp">   -334.67181273 </i>
    <i name="e_0_energy">   -334.67759668 </i>
   </energy>
  </scstep>
  <scstep>
   <time name="dav">   24.61   24.64</time>
   <time name="total">   25.21   25.25</time>
   <energy>
    <i name="e_fr_energy">   -334.64048615 </i>
    <i name="e_wo_entrp">   -334.62983852 </i>
    <i name="e_0_energy">   -334.63693694 </i>
   </energy>
  </scstep>
  <scstep>
   <time name="dav">   25.79   25.82</time>
   <time name="total">   26.40   26.56</time>
   <energy>
    <i name="e_fr_energy">   -334.60370147 </i>
    <i name="e_wo_entrp">   -334.59462580 </i>
    <i name="e_0_energy">   -334.60067624 </i>
   </energy>
  </scstep>
  <scstep>
   <time name="dav">   25.75   25.78</time>
   <time name="total">   26.34   26.38</time>
   <energy>
    <i name="e_fr_energy">   -334.59837254 </i>
    <i name="e_wo_entrp">   -334.58837670 </i>
    <i name="e_0_energy">   -334.59504060 </i>
   </energy>
  </scstep>
  <scstep>
   <time name="dav">   25.73   25.76</time>
   <time name="total">   26.34   26.40</time>
   <energy>
    <i name="e_fr_energy">   -334.59666948 </i>
    <i name="e_wo_entrp">   -334.58667304 </i>
    <i name="e_0_energy">   -334.59333733 </i>
   </energy>
  </scstep>
  <scstep>
   <time name="dav">   24.23   24.27</time>
   <time name="total">   24.83   24.87</time>
   <energy>
    <i name="e_fr_energy">   -334.59489667 </i>
    <i name="e_wo_entrp">   -334.58470070 </i>
    <i name="e_0_energy">   -334.59149801 </i>
   </energy>
  </scstep>
  <scstep>
   <time name="dav">   23.47   23.50</time>
   <time name="total">   24.06   24.09</time>
   <energy>
    <i name="e_fr_energy">   -334.59451262 </i>
    <i name="e_wo_entrp">   -334.58448256 </i>
    <i name="e_0_energy">   -334.59116927 </i>
   </energy>
  </scstep>
  <scstep>
   <time name="dav">   23.33   23.36</time>
   <time name="total">   23.95   24.02</time>
   <energy>
    <i name="e_fr_energy">   -334.59442809 </i>
    <i name="e_wo_entrp">   -334.58444613 </i>
    <i name="e_0_energy">   -334.59110077 </i>
   </energy>
  </scstep>
  <scstep>
   <time name="dav">   21.65   21.68</time>
   <time name="total">   22.25   22.28</time>
   <energy>
    <i name="e_fr_energy">   -334.59437866 </i>
    <i name="e_wo_entrp">   -334.58434937 </i>
    <i name="e_0_energy">   -334.59103556 </i>
   </energy>
  </scstep>
  <scstep>
   <time name="dav">   15.87   15.89</time>
   <time name="total">   15.90   15.92</time>
   <energy>
    <i name="alphaZ">   1318.14636210 </i>
    <i name="ewald"> -11743.65057922 </i>
    <i name="hartreedc">  -2961.92861529 </i>
    <i name="XCdc">   -862.39415695 </i>
    <i name="pawpsdc">  21077.12977498 </i>
    <i name="pawaedc"> -19554.77953605 </i>
    <i name="eentropy">     -0.01006089 </i>
    <i name="bandstr">   -723.53628394 </i>
    <i name="atom">  13116.42875384 </i>
    <i name="e_fr_energy">   -334.59434142 </i>
    <i name="e_wo_entrp">   -334.58428053 </i>
    <i name="e_0_energy">   -334.59098779 </i>
   </energy>
  </scstep>
  <structure>
   <crystal>
    <varray name="basis" >
     <v>      -3.19000000      -3.19000000      -3.19000000 </v>
     <v>       1.59500000       1.59500000      -7.97500000 </v>
     <v>       7.97500000      -7.97500000      -1.59500000 </v>
    </varray>
    <i name="volume">    486.92638500 </i>
    <varray name="rec_basis" >
     <v>      -0.13584117      -0.12539185      -0.05224660 </v>
     <v>       0.04179728       0.06269592      -0.10449321 </v>
     <v>       0.06269592      -0.06269592       0.00000000 </v>
    </varray>
   </crystal>
   <varray name="positions" >
    <v>       0.96666667       0.93333333       0.40000000 </v>
    <v>       0.63333333       0.26666667       0.40000000 </v>
    <v>       0.50000000       0.00000000       0.00000000 </v>
    <v>       0.00000000       0.00000000       0.00000000 </v>
    <v>       0.10000000       0.20000000       0.80000000 </v>
    <v>       0.03333333       0.06666667       0.60000000 </v>
    <v>       0.90000000       0.80000000       0.20000000 </v>
    <v>       0.80000000       0.60000000       0.40000000 </v>
    <v>       0.73333333       0.46666667       0.20000000 </v>
    <v>       0.66666667       0.33333333       0.00000000 </v>
    <v>       0.36666667       0.73333333       0.60000000 </v>
    <v>       0.13333333       0.26666667       0.40000000 </v>
    <v>       0.83333333       0.66666667       0.00000000 </v>
    <v>       0.93333333       0.86666667       0.80000000 </v>
    <v>       0.56666667       0.13333333       0.20000000 </v>
    <v>       0.40000000       0.80000000       0.20000000 </v>
    <v>       0.43333333       0.86666667       0.80000000 </v>
    <v>       0.30000000       0.60000000       0.40000000 </v>
    <v>       0.86666667       0.73333333       0.60000000 </v>
    <v>       0.46666667       0.93333333       0.40000000 </v>
    <v>       0.16666667       0.33333333       0.00000000 </v>
    <v>       0.26666667       0.53333333       0.80000000 </v>
    <v>       0.20000000       0.40000000       0.60000000 </v>
    <v>       0.76666667       0.53333333       0.80000000 </v>
    <v>       0.70000000       0.40000000       0.60000000 </v>
    <v>       0.60000000       0.20000000       0.80000000 </v>
    <v>       0.53333333       0.06666667       0.60000000 </v>
    <v>       0.33333333       0.66666667       0.00000000 </v>
    <v>       0.23333333       0.46666667       0.20000000 </v>
   </varray>
  </structure>
  <varray name="forces" >
   <v>      -0.73722957       1.05905138      -0.36161459 </v>
   <v>       0.29195201      -0.03668566       0.06671380 </v>
   <v>      -0.25461492       0.10643990      -0.33561736 </v>
   <v>       0.87721111      -0.53834081      -0.50459283 </v>
   <v>       0.27749658       0.37995041      -0.48716934 </v>
   <v>      -0.51717238       0.20271911      -0.19546662 </v>
   <v>       0.31938863      -0.36495186       0.50468959 </v>
   <v>      -0.51986584      -0.11939543       0.43867542 </v>
   <v>      -0.40544835      -0.21419937       0.43902453 </v>
   <v>       0.39340231       0.66808134      -0.46992734 </v>
   <v>      -0.15089316      -0.14835833       0.34228827 </v>
   <v>      -0.33241293       0.53801379      -0.29542171 </v>
   <v>       0.25942524      -0.54843678       0.27514962 </v>
   <v>      -0.00416304       0.41615375      -0.10149142 </v>
   <v>      -0.21086093       0.36442453      -0.15628215 </v>
   <v>      -0.16802188       0.44460179      -0.15079644 </v>
   <v>      -0.64832673      -0.01598194       0.72787880 </v>
   <v>       0.21101155      -0.12679854      -0.21385860 </v>
   <v>       0.24244175       0.20537208       0.33192414 </v>
   <v>       0.47126823      -1.07253662       0.09968828 </v>
   <v>       0.49338986      -0.77032109       0.07097032 </v>
   <v>      -0.27063162       0.09418576      -0.25038183 </v>
   <v>      -0.14360758      -0.05136448       0.44050029 </v>
   <v>      -0.20823266      -0.29688054       0.59718069 </v>
   <v>       0.60236463       0.09255575      -0.76215579 </v>
   <v>      -0.03943465       0.31496425      -0.04915985 </v>
   <v>      -0.02381856      -0.23312397      -0.38929727 </v>
   <v>       0.01475005      -0.51545793       0.77110730 </v>
   <v>       0.18063283       0.16631951      -0.38255794 </v>
  </varray>
  <varray name="stress" >
   <v>     -31.62892654      -3.00900234      -3.30243712 </v>
   <v>      -3.00900229     -22.84013633      -0.77048216 </v>
   <v>      -3.30243694      -0.77048224     -25.16635342 </v>
  </varray>
  <energy>
   <i name="e_fr_energy">   -334.59434142 </i>
   <i name="e_wo_entrp">   -334.59098779 </i>
   <i name="e_0_energy">     -0.01006089 </i>
  </energy>
  <time name="totalsc">  534.34  536.63</time>
 </calculation>
 <calculation>
  <scstep>
   <time name="dav">   19.94   19.97</time>
   <time name="total">   20.54   20.85</time>
   <energy>
    <i name="alphaZ">   1372.68908195 </i>
    <i name="ewald"> -11948.81387395 </i>
    <i name="hartreedc">  -2958.88304912 </i>
    <i name="XCdc">   -857.34201897 </i>
    <i name="pawpsdc">  21075.67163951 </i>
    <i name="pawaedc"> -19553.28601779 </i>
    <i name="eentropy">     -0.00976890 </i>
    <i name="bandstr">   -582.21852450 </i>
    <i name="atom">  13116.42875384 </i>
    <i name="e_fr_energy">   -335.76377794 </i>
    <i name="e_wo_entrp">   -335.75400904 </i>
    <i name="e_0_energy">   -335.76052164 </i>
   </energy>
  </scstep>
  <scstep>
   <time name="dav">   26.08   26.13</time>
   <time name="total">   26.70   26.74</time>
   <energy>
    <i name="e_fr_energy">   -336.18094276 </i>
    <i name="e_wo_entrp">   -336.19036433 </i>
    <i name="e_0_energy">   -336.18408328 </i>
   </energy>
  </scstep>
  <scstep>
   <time name="dav">   25.29   25.32</time>
   <time name="total">   25.91   25.99</time>
   <energy>
    <i name="e_fr_energy">   -335.65570361 </i>
    <i name="e_wo_entrp">   -335.65112935 </i>
    <i name="e_0_energy">   -335.65417886 </i>
   </energy>
  </scstep>
  <scstep>
   <time name="dav">   26.22   26.25</time>
   <time name="total">   26.81   26.85</time>
   <energy>
    <i name="e_fr_energy">   -335.19495397 </i>
    <i name="e_wo_entrp">   -335.19144160 </i>
    <i name="e_0_energy">   -335.19378318 </i>
   </energy>
  </scstep>
  <scstep>
   <time name="dav">   25.51   25.54</time>
   <time name="total">   26.11   26.15</time>
   <energy>
    <i name="e_fr_energy">   -334.98682408 </i>
    <i name="e_wo_entrp">   -334.98011871 </i>
    <i name="e_0_energy">   -334.98458895 </i>
   </energy>
  </scstep>
  <scstep>
   <time name="dav">   28.34   28.38</time>
   <time name="total">   28.96   29.02</time>
   <energy>
    <i name="e_fr_energy">   -334.91425595 </i>
    <i name="e_wo_entrp">   -334.91061532 </i>
    <i name="e_0_energy">   -334.91304241 </i>
   </energy>
  </scstep>
  <scstep>
   <time name="dav">   25.83   25.86</time>
   <time name="total">   26.42   26.46</time>
   <energy>
    <i name="e_fr_energy">   -334.92110120 </i>
    <i name="e_wo_entrp">   -334.91658687 </i>
    <i name="e_0_energy">   -334.91959642 </i>
   </energy>
  </scstep>
  <scstep>
   <time name="dav">   27.23   27.27</time>
   <time name="total">   27.83   27.87</time>
   <energy>
    <i name="e_fr_energy">   -334.92220861 </i>
    <i name="e_wo_entrp">   -334.91777883 </i>
    <i name="e_0_energy">   -334.92073202 </i>
   </energy>
  </scstep>
  <scstep>
   <time name="dav">   25.87   25.90</time>
   <time name="total">   26.47   26.52</time>
   <energy>
    <i name="e_fr_energy">   -334.92410578 </i>
    <i name="e_wo_entrp">   -334.91938725 </i>
    <i name="e_0_energy">   -334.92253293 </i>
   </energy>
  </scstep>
  <scstep>
   <time name="dav">   27.46   27.51</time>
   <time name="total">   28.06   28.11</time>
   <energy>
    <i name="e_fr_energy">   -334.92673424 </i>
    <i name="e_wo_entrp">   -334.92208924 </i>
    <i name="e_0_energy">   -334.92518591 </i>
   </energy>
  </scstep>
  <scstep>
   <time name="dav">   25.87   25.91</time>
   <time name="total">   26.47   26.51</time>
   <energy>
    <i name="e_fr_energy">   -334.92804992 </i>
    <i name="e_wo_entrp">   -334.92347288 </i>
    <i name="e_0_energy">   -334.92652424 </i>
   </energy>
  </scstep>
  <scstep>
   <time name="dav">   26.17   26.20</time>
   <time name="total">   26.76   26.81</time>
   <energy>
    <i name="e_fr_energy">   -334.92814599 </i>
    <i name="e_wo_entrp">   -334.92344931 </i>
    <i name="e_0_energy">   -334.92658043 </i>
   </energy>
  </scstep>
  <scstep>
   <time name="dav">   23.85   23.88</time>
   <time name="total">   24.44   24.48</time>
   <energy>
    <i name="e_fr_energy">   -334.92818658 </i>
    <i name="e_wo_entrp">   -334.92353262 </i>
    <i name="e_0_energy">   -334.92663526 </i>
   </energy>
  </scstep>
  <scstep>
   <time name="dav">   15.85   15.87</time>
   <time name="total">   15.88   15.91</time>
   <energy>
    <i name="alphaZ">   1372.68908195 </i>
    <i name="ewald"> -11948.81387395 </i>
    <i name="hartreedc">  -2885.53668112 </i>
    <i name="XCdc">   -859.42867904 </i>
    <i name="pawpsdc">  22409.97013108 </i>
    <i name="pawaedc"> -20888.27867374 </i>
    <i name="eentropy">     -0.00464363 </i>
    <i name="bandstr">   -651.95359609 </i>
    <i name="atom">  13116.42875384 </i>
    <i name="e_fr_energy">   -334.92818070 </i>
    <i name="e_wo_entrp">   -334.92353708 </i>
    <i name="e_0_energy">   -334.92663283 </i>
   </energy>
  </scstep>
  <structure>
   <crystal>
    <varray name="basis" >
     <v>      -3.12881033      -3.14706826      -3.14284333 </v>
     <v>       1.58038353       1.57726200      -7.87681455 </v>
     <v>       7.86226857      -7.89442028      -1.58491479 </v>
    </varray>
    <i name="volume">    467.57874849 </i>
    <varray name="rec_basis" >
     <v>      -0.13833544      -0.12709059      -0.05320402 </v>
     <v>       0.04239519       0.06345193      -0.10574313 </v>
     <v>       0.06361701      -0.06333042       0.00008260 </v>
    </varray>
   </crystal>
   <varray name="positions" >
    <v>       0.96600299       0.93687291       0.39456694 </v>
    <v>       0.63147384       0.26680810       0.40099400 </v>
    <v>       0.50187063       0.00150039      -0.00109205 </v>
    <v>      -0.00122028       0.00268421       0.00428150 </v>
    <v>       0.09711098       0.20416459       0.79969012 </v>
    <v>       0.03598892       0.06722234       0.59782260 </v>
    <v>       0.89884254       0.79699602       0.20206987 </v>
    <v>       0.80302342       0.59637923       0.39878873 </v>
    <v>       0.73617954       0.46298811       0.19942154 </v>
    <v>       0.66123165       0.33851620      -0.00083080 </v>
    <v>       0.36769024       0.73085485       0.59999233 </v>
    <v>       0.13300179       0.26911290       0.39736729 </v>
    <v>       0.83425733       0.66414393       0.00244347 </v>
    <v>       0.93109901       0.86842860       0.79872870 </v>
    <v>       0.56623793       0.13479822       0.19825998 </v>
    <v>       0.39879169       0.80176612       0.19814705 </v>
    <v>       0.43584408       0.86164178       0.79808740 </v>
    <v>       0.29992324       0.60112004       0.40102175 </v>
    <v>       0.86299890       0.73277013       0.60011212 </v>
    <v>       0.46981505       0.93053706       0.40466942 </v>
    <v>       0.16791429       0.33164052       0.00382224 </v>
    <v>       0.26850155       0.53433468       0.79889657 </v>
    <v>       0.20014154       0.39733450       0.59972100 </v>
    <v>       0.76832199       0.52900509       0.80026813 </v>
    <v>       0.69741363       0.40533661       0.60154198 </v>
    <v>       0.59847704       0.20112095       0.79892808 </v>
    <v>       0.53588087       0.06787599       0.60063307 </v>
    <v>       0.33441121       0.66125017       0.00160368 </v>
    <v>       0.23210772       0.46946244       0.20004329 </v>
   </varray>
  </structure>
  <varray name="forces" >
   <v>      -0.64838306       0.74885616      -0.40734488 </v>
   <v>       0.05050166       0.12329955       0.01295951 </v>
   <v>      -0.21070290       0.11239726      -0.07810101 </v>
   <v>       0.55607926      -0.36950256      -0.46278509 </v>
   <v>       0.09557289       0.00788932      -0.07493946 </v>
   <v>      -0.33531324       0.16242424      -0.19662596 </v>
   <v>       0.17794772      -0.04975107       0.19076233 </v>
   <v>      -0.13974800      -0.08608538       0.07089127 </v>
   <v>      -0.30786753      -0.29752852       0.48584543 </v>
   <v>       0.17007079       0.20299039      -0.16185374 </v>
   <v>      -0.04459024      -0.00800584       0.21200303 </v>
   <v>      -0.29891338       0.33543367       0.03802358 </v>
   <v>       0.02794055      -0.19262533       0.06352285 </v>
   <v>       0.04507831       0.01037872      -0.05246201 </v>
   <v>       0.11528473       0.13922932       0.05132305 </v>
   <v>       0.27977676       0.26125578      -0.30705498 </v>
   <v>      -0.07897367       0.02766749       0.31037075 </v>
   <v>       0.15929781      -0.11283109      -0.15582257 </v>
   <v>      -0.04874818       0.21057878       0.16502445 </v>
   <v>       0.09767931      -0.61999316       0.08430685 </v>
   <v>       0.46087543      -0.53824092       0.24196454 </v>
   <v>      -0.11941494       0.07981377       0.01932232 </v>
   <v>      -0.02038693       0.02892538       0.14750494 </v>
   <v>      -0.07741308      -0.19976790       0.05814586 </v>
   <v>       0.13529252       0.07741932      -0.24208702 </v>
   <v>       0.02351682       0.16834687      -0.03768338 </v>
   <v>      -0.07574091      -0.10811436      -0.13538434 </v>
   <v>      -0.01167802      -0.03997778       0.24122310 </v>
   <v>       0.02295949      -0.07448208      -0.08104943 </v>
  </varray>
  <varray name="stress" >
   <v>      63.95836251      -1.25367456      -2.55000758 </v>
   <v>      -1.25367453      66.73718379      -0.75540803 </v>
   <v>      -2.55000767      -0.75540807      64.32515291 </v>
  </varray>
  <energy>
   <i name="e_fr_energy">   -334.92818070 </i>
   <i name="e_wo_entrp">   -334.92663283 </i>
   <i name="e_0_energy">     -0.00464363 </i>
  </energy>
  <time name="totalsc">  375.20  377.51</time>
 </calculation>
 <calculation>
  <scstep>
   <time name="dav">   20.84   20.91</time>
   <time name="total">   21.44   21.59</time>
   <energy>
    <i name="alphaZ">   1357.62762058 </i>
    <i name="ewald"> -11893.24594460 </i>
    <i name="hartreedc">  -2886.29673843 </i>
    <i name="XCdc">   -860.78961706 </i>
    <i name="pawpsdc">  22409.15196059 </i>
    <i name="pawaedc"> -20887.43553834 </i>
    <i name="eentropy">     -0.00473276 </i>
    <i name="bandstr">   -690.48106264 </i>
    <i name="atom">  13116.42875384 </i>
    <i name="e_fr_energy">   -335.04529882 </i>
    <i name="e_wo_entrp">   -335.04056606 </i>
    <i name="e_0_energy">   -335.04372123 </i>
   </energy>
  </scstep>
  <scstep>
   <time name="dav">   27.02   27.10</time>
   <time name="total">   27.61   27.70</time>
   <energy>
    <i name="e_fr_energy">   -335.08129032 </i>
    <i name="e_wo_entrp">   -335.07329946 </i>
    <i name="e_0_energy">   -335.07862670 </i>
   </energy>
  </scstep>
  <scstep>
   <time name="dav">   25.17   25.20</time>
   <time name="total">   25.78   25.82</time>
   <energy>
    <i name="e_fr_energy">   -335.05541730 </i>
    <i name="e_wo_entrp">   -335.05154686 </i>
    <i name="e_0_energy">   -335.05412715 </i>
   </energy>
  </scstep>
  <scstep>
   <time name="dav">   26.24   26.28</time>
   <time name="total">   26.84   26.89</time>
   <energy>
    <i name="e_fr_energy">   -335.00632563 </i>
    <i name="e_wo_entrp">   -334.99992627 </i>
    <i name="e_0_energy">   -335.00419251 </i>
   </energy>
  </scstep>
  <scstep>
   <time name="dav">   25.22   25.26</time>
   <time name="total">   25.82   25.86</time>
   <energy>
    <i name="e_fr_energy">   -334.98912071 </i>
    <i name="e_wo_entrp">   -334.98359534 </i>
    <i name="e_0_energy">   -334.98727892 </i>
   </energy>
  </scstep>
  <scstep>
   <time name="dav">   26.79   26.83</time>
   <time name="total">   27.41   27.46</time>
   <energy>
    <i name="e_fr_energy">   -334.98452365 </i>
    <i name="e_wo_entrp">   -334.97806761 </i>
    <i name="e_0_energy">   -334.98237164 </i>
   </energy>
  </scstep>
  <scstep>
   <time name="dav">   25.92   25.95</time>
   <time name="total">   26.52   26.55</time>
   <energy>
    <i name="e_fr_energy">   -334.98485021 </i>
    <i name="e_wo_entrp">   -334.97868111 </i>
    <i name="e_0_energy">   -334.98279385 </i>
   </energy>
  </scstep>
  <scstep>
   <time name="dav">   24.60   24.62</time>
   <time name="total">   25.19   25.22</time>
   <energy>
    <i name="e_fr_energy">   -334.98476251 </i>
    <i name="e_wo_entrp">   -334.97855420 </i>
    <i name="e_0_energy">   -334.98269307 </i>
   </energy>
  </scstep>
  <scstep>
   <time name="dav">   24.33   24.36</time>
   <time name="total">   24.93   24.97</time>
   <energy>
    <i name="e_fr_energy">   -334.98482471 </i>
    <i name="e_wo_entrp">   -334.97869482 </i>
    <i name="e_0_energy">   -334.98278141 </i>
   </energy>
  </scstep>
  <scstep>
   <time name="dav">   24.38   24.41</time>
   <time name="total">   24.98   25.01</time>
   <energy>
    <i name="e_fr_energy">   -334.98501409 </i>
    <i name="e_wo_entrp">   -334.97889527 </i>
    <i name="e_0_energy">   -334.98297448 </i>
   </energy>
  </scstep>
  <scstep>
   <time name="dav">   24.23   24.26</time>
   <time name="total">   24.83   24.86</time>
   <energy>
    <i name="e_fr_energy">   -334.98508184 </i>
    <i name="e_wo_entrp">   -334.97892257 </i>
    <i name="e_0_energy">   -334.98302875 </i>
   </energy>
  </scstep>
  <scstep>
   <time name="dav">   19.65   19.68</time>
   <time name="total">   19.70   19.74</time>
   <energy>
    <i name="alphaZ">   1357.62762058 </i>
    <i name="ewald"> -11893.24594460 </i>
    <i name="hartreedc">  -2906.06106833 </i>
    <i name="XCdc">   -860.22451464 </i>
    <i name="pawpsdc">  22025.74092623 </i>
    <i name="pawaedc"> -20503.62925718 </i>
    <i name="eentropy">     -0.00613088 </i>
    <i name="bandstr">   -671.61544645 </i>
    <i name="atom">  13116.42875384 </i>
    <i name="e_fr_energy">   -334.98506143 </i>
    <i name="e_wo_entrp">   -334.97893055 </i>
    <i name="e_0_energy">   -334.98301780 </i>
   </energy>
  </scstep>
  <structure>
   <crystal>
    <varray name="basis" >
     <v>      -3.14537577      -3.15869087      -3.15560972 </v>
     <v>       1.58434054       1.58206408      -7.90339560 </v>
     <v>       7.89278755      -7.91623505      -1.58764508 </v>
    </varray>
    <i name="volume">    472.76604665 </i>
    <varray name="rec_basis" >
     <v>      -0.13765137      -0.12662595      -0.05294142 </v>
     <v>       0.04223160       0.06324544      -0.10540184 </v>
     <v>       0.06336487      -0.06315747       0.00005977 </v>
    </varray>
   </crystal>
   <varray name="positions" >
    <v>       0.96617762       0.93590406       0.39605583 </v>
    <v>       0.63198678       0.26676898       0.40072102 </v>
    <v>       0.50135408       0.00108966      -0.00079210 </v>
    <v>      -0.00087960       0.00194776       0.00310793 </v>
    <v>       0.09790448       0.20302327       0.79977434 </v>
    <v>       0.03525519       0.06707075       0.59842019 </v>
    <v>       0.89916451       0.79781862       0.20150210 </v>
    <v>       0.80219081       0.59737186       0.39912144 </v>
    <v>       0.73539654       0.46399643       0.19958077 </v>
    <v>       0.66272480       0.33709574      -0.00060457 </v>
    <v>       0.36740921       0.73153407       0.59999463 </v>
    <v>       0.13308896       0.26844311       0.39808880 </v>
    <v>       0.83400691       0.66483477       0.00177401 </v>
    <v>       0.93171172       0.86794587       0.79907648 </v>
    <v>       0.56635327       0.13439713       0.19873677 </v>
    <v>       0.39912131       0.80128245       0.19865455 </v>
    <v>       0.43515199       0.86301923       0.79861207 </v>
    <v>       0.29994541       0.60081293       0.40074178 </v>
    <v>       0.86400846       0.73292409       0.60008019 </v>
    <v>       0.46895551       0.93130261       0.40339064 </v>
    <v>       0.16757640       0.33210371       0.00277508 </v>
    <v>       0.26799495       0.53406069       0.79919960 </v>
    <v>       0.20010291       0.39806493       0.59979736 </v>
    <v>       0.76786795       0.53019115       0.80019494 </v>
    <v>       0.69812597       0.40387381       0.60111887 </v>
    <v>       0.59889443       0.20081388       0.79922141 </v>
    <v>       0.53518038       0.06754473       0.60046046 </v>
    <v>       0.33411809       0.66273411       0.00116424 </v>
    <v>       0.23244431       0.46869626       0.20003119 </v>
   </varray>
  </structure>
  <varray name="forces" >
   <v>      -0.68452215       0.85713220      -0.39372069 </v>
   <v>       0.12200461       0.08007144       0.02948839 </v>
   <v>      -0.22751994       0.11166709      -0.15384402 </v>
   <v>       0.65503140      -0.41893271      -0.47659344 </v>
   <v>       0.14987551       0.12207212      -0.19717995 </v>
   <v>      -0.38984400       0.17547644      -0.19904082 </v>
   <v>       0.21989778      -0.14535871       0.28106473 </v>
   <v>      -0.25922912      -0.10136746       0.18376695 </v>
   <v>      -0.34673198      -0.27762128       0.47310208 </v>
   <v>       0.24617157       0.34514399      -0.26819847 </v>
   <v>      -0.08116388      -0.05891569       0.26128161 </v>
   <v>      -0.30515211       0.40092807      -0.06156128 </v>
   <v>       0.10255345      -0.31140655       0.12820591 </v>
   <v>       0.03335156       0.11974985      -0.09072046 </v>
   <v>       0.01750570       0.19580040      -0.00397108 </v>
   <v>       0.15391080       0.32082919      -0.27456343 </v>
   <v>      -0.25397299       0.00774733       0.43137833 </v>
   <v>       0.17794259      -0.11306195      -0.15282366 </v>
   <v>       0.03300378       0.21851891       0.21671134 </v>
   <v>       0.21093119      -0.74952231       0.08103722 </v>
   <v>       0.48064855      -0.60626479       0.19299396 </v>
   <v>      -0.16902225       0.08636323      -0.06477961 </v>
   <v>      -0.05608761       0.00405632       0.23638935 </v>
   <v>      -0.12216414      -0.22860617       0.23551163 </v>
   <v>       0.28243203       0.08164621      -0.40785404 </v>
   <v>       0.00241541       0.21329247      -0.04272798 </v>
   <v>      -0.05775590      -0.14577697      -0.21165651 </v>
   <v>      -0.00567976      -0.19046411       0.41472638 </v>
   <v>       0.07116989       0.00680347      -0.16642245 </v>
  </varray>
  <varray name="stress" >
   <v>      36.29669286      -1.80976387      -2.88469530 </v>
   <v>      -1.80976392      40.95956212      -0.53063260 </v>
   <v>      -2.88469519      -0.53063271      38.58959521 </v>
  </varray>
  <energy>
   <i name="e_fr_energy">   -334.98506143 </i>
   <i name="e_wo_entrp">   -334.98301780 </i>
   <i name="e_0_energy">     -0.00613088 </i>
  </energy>
  <time name="totalsc">  319.21  320.10</time>
 </calculation>
 <calculation>
  <scstep>
   <time name="dav">   19.28   19.31</time>
   <time name="total">   19.89   19.92</time>
   <energy>
    <i name="alphaZ">   1343.79717399 </i>
    <i name="ewald"> -11886.64301810 </i>
    <i name="hartreedc">  -2863.49485054 </i>
    <i name="XCdc">   -861.65414954 </i>
    <i name="pawpsdc">  22025.73730278 </i>
    <i name="pawaedc"> -20503.70125776 </i>
    <i name="eentropy">     -0.00108382 </i>
    <i name="bandstr">   -705.47495662 </i>
    <i name="atom">  13116.42875384 </i>
    <i name="e_fr_energy">   -335.00608577 </i>
    <i name="e_wo_entrp">   -335.00500195 </i>
    <i name="e_0_energy">   -335.00572450 </i>
   </energy>
  </scstep>
  <scstep>
   <time name="dav">   24.05   24.08</time>
   <time name="total">   24.65   24.68</time>
   <energy>
    <i name="e_fr_energy">   -335.36918595 </i>
    <i name="e_wo_entrp">   -335.36665694 </i>
    <i name="e_0_energy">   -335.36834294 </i>
   </energy>
  </scstep>
  <scstep>
   <time name="dav">   26.49   26.53</time>
   <time name="total">   27.09   27.13</time>
   <energy>
    <i name="e_fr_energy">   -335.39320965 </i>
    <i name="e_wo_entrp">   -335.39018356 </i>
    <i name="e_0_energy">   -335.39220095 </i>
   </energy>
  </scstep>
  <scstep>
   <time name="dav">   25.95   25.98</time>
   <time name="total">   26.55   26.58</time>
   <energy>
    <i name="e_fr_energy">   -335.34692482 </i>
    <i name="e_wo_entrp">   -335.34526884 </i>
    <i name="e_0_energy">   -335.34637282 </i>
   </energy>
  </scstep>
  <scstep>
   <time name="dav">   25.98   26.01</time>
   <time name="total">   26.58   26.61</time>
   <energy>
    <i name="e_fr_energy">   -335.34587081 </i>
    <i name="e_wo_entrp">   -335.34309475 </i>
    <i name="e_0_energy">   -335.34494545 </i>
   </energy>
  </scstep>
  <scstep>
   <time name="dav">   26.47   26.50</time>
   <time name="total">   27.07   27.11</time>
   <energy>
    <i name="e_fr_energy">   -335.33792862 </i>
    <i name="e_wo_entrp">   -335.33556765 </i>
    <i name="e_0_energy">   -335.33714163 </i>
   </energy>
  </scstep>
  <scstep>
   <time name="dav">   27.36   27.39</time>
   <time name="total">   27.95   27.99</time>
   <energy>
    <i name="e_fr_energy">   -335.33449665 </i>
    <i name="e_wo_entrp">   -335.33225880 </i>
    <i name="e_0_energy">   -335.33375070 </i>
   </energy>
  </scstep>
  <scstep>
   <time name="dav">   25.15   25.19</time>
   <time name="total">   25.75   25.79</time>
   <energy>
    <i name="e_fr_energy">   -335.33458636 </i>
    <i name="e_wo_entrp">   -335.33223024 </i>
    <i name="e_0_energy">   -335.33380099 </i>
   </energy>
  </scstep>
  <scstep>
   <time name="dav">   23.09   23.12</time>
   <time name="total">   23.71   23.75</time>
   <energy>
    <i name="e_fr_energy">   -335.33445570 </i>
    <i name="e_wo_entrp">   -335.33218828 </i>
    <i name="e_0_energy">   -335.33369989 </i>
   </energy>
  </scstep>
  <scstep>
   <time name="dav">   22.02   22.04</time>
   <time name="total">   22.61   22.64</time>
   <energy>
    <i name="e_fr_energy">   -335.33462406 </i>
    <i name="e_wo_entrp">   -335.33226246 </i>
    <i name="e_0_energy">   -335.33383686 </i>
   </energy>
  </scstep>
  <scstep>
   <time name="dav">   22.19   22.22</time>
   <time name="total">   22.79   22.82</time>
   <energy>
    <i name="e_fr_energy">   -335.33477124 </i>
    <i name="e_wo_entrp">   -335.33245835 </i>
    <i name="e_0_energy">   -335.33400028 </i>
   </energy>
  </scstep>
  <scstep>
   <time name="dav">   22.12   22.16</time>
   <time name="total">   22.73   22.78</time>
   <energy>
    <i name="e_fr_energy">   -335.33462438 </i>
    <i name="e_wo_entrp">   -335.33232238 </i>
    <i name="e_0_energy">   -335.33385705 </i>
   </energy>
  </scstep>
  <scstep>
   <time name="dav">   13.29   13.31</time>
   <time name="total">   13.32   13.34</time>
   <energy>
    <i name="alphaZ">   1343.79717399 </i>
    <i name="ewald"> -11886.64301810 </i>
    <i name="hartreedc">  -2879.32641129 </i>
    <i name="XCdc">   -861.12868343 </i>
    <i name="pawpsdc">  21640.52192124 </i>
    <i name="pawaedc"> -20118.90910780 </i>
    <i name="eentropy">     -0.00231060 </i>
    <i name="bandstr">   -690.07292419 </i>
    <i name="atom">  13116.42875384 </i>
    <i name="e_fr_energy">   -335.33460635 </i>
    <i name="e_wo_entrp">   -335.33229575 </i>
    <i name="e_0_energy">   -335.33383615 </i>
   </energy>
  </scstep>
  <structure>
   <crystal>
    <varray name="basis" >
     <v>      -3.14157273      -3.16945991      -3.16152170 </v>
     <v>       1.59723474       1.59054794      -7.93605734 </v>
     <v>       7.91721963      -7.96436575      -1.60332231 </v>
    </varray>
    <i name="volume">    477.63178508 </i>
    <varray name="rec_basis" >
     <v>      -0.13767054      -0.12618638      -0.05299831 </v>
     <v>       0.04207812       0.06295104      -0.10492171 </v>
     <v>       0.06319003      -0.06277093       0.00013724 </v>
    </varray>
   </crystal>
   <varray name="positions" >
    <v>       0.96602623       0.93933893       0.39090807 </v>
    <v>       0.63034451       0.26701937       0.40127880 </v>
    <v>       0.50292210       0.00217418      -0.00187525 </v>
    <v>      -0.00178981       0.00457370       0.00693856 </v>
    <v>       0.09582981       0.20595634       0.79966779 </v>
    <v>       0.03763473       0.06773937       0.59643946 </v>
    <v>       0.89791030       0.79559204       0.20310816 </v>
    <v>       0.80466794       0.59465789       0.39827037 </v>
    <v>       0.73826824       0.46010407       0.19918336 </v>
    <v>       0.65843731       0.34118097      -0.00116920 </v>
    <v>       0.36803535       0.72943432       0.59995493 </v>
    <v>       0.13279099       0.27012707       0.39566026 </v>
    <v>       0.83492798       0.66286144       0.00364020 </v>
    <v>       0.93023240       0.86928319       0.79831329 </v>
    <v>       0.56546036       0.13546104       0.19759501 </v>
    <v>       0.39732941       0.80356487       0.19747605 </v>
    <v>       0.43667541       0.85913288       0.79725019 </v>
    <v>       0.29985322       0.60178217       0.40171147 </v>
    <v>       0.86108957       0.73245393       0.59984022 </v>
    <v>       0.47206281       0.92873432       0.40722738 </v>
    <v>       0.16819501       0.33029783       0.00639983 </v>
    <v>       0.26930259       0.53468360       0.79824561 </v>
    <v>       0.20003770       0.39606764       0.59956390 </v>
    <v>       0.76952768       0.52693396       0.80049675 </v>
    <v>       0.69614785       0.40802447       0.60220093 </v>
    <v>       0.59750876       0.20182437       0.79835656 </v>
    <v>       0.53739129       0.06840981       0.60091124 </v>
    <v>       0.33472022       0.65864865       0.00225001 </v>
    <v>       0.23179338       0.47060422       0.20015605 </v>
   </varray>
  </structure>
  <varray name="forces" >
   <v>      -0.50531051       0.43255209      -0.27676445 </v>
   <v>       0.07125411       0.16396335      -0.03883128 </v>
   <v>      -0.32750275       0.05857507       0.02384370 </v>
   <v>       0.31907024      -0.20808210      -0.22593114 </v>
   <v>       0.03669785      -0.14308557       0.13942392 </v>
   <v>      -0.20776230       0.13807199      -0.16682626 </v>
   <v>       0.04795188       0.09560022       0.13685924 </v>
   <v>      -0.02267151      -0.06208860      -0.01511488 </v>
   <v>      -0.07654556      -0.12982083       0.29133623 </v>
   <v>       0.03734000       0.07120959       0.00191714 </v>
   <v>       0.01850939       0.02830240       0.12690936 </v>
   <v>      -0.17906351       0.17827554       0.02601220 </v>
   <v>       0.01638985      -0.00290674      -0.01438310 </v>
   <v>       0.14886695      -0.09698942      -0.09436030 </v>
   <v>       0.21059237       0.07503467       0.10769175 </v>
   <v>       0.23027943       0.06767742      -0.10463480 </v>
   <v>       0.09388931       0.00363447       0.08727969 </v>
   <v>       0.03278989       0.00239655      -0.12040234 </v>
   <v>      -0.13333951       0.21059997       0.03892113 </v>
   <v>      -0.06101546      -0.41486874       0.06418563 </v>
   <v>       0.36549954      -0.30910799       0.19957717 </v>
   <v>      -0.00285539       0.01536142       0.09778146 </v>
   <v>      -0.04106396       0.05812939       0.06653355 </v>
   <v>       0.04349551      -0.10291554      -0.16136492 </v>
   <v>      -0.03905527       0.03212909       0.02466315 </v>
   <v>      -0.06277093       0.07556389       0.00511422 </v>
   <v>      -0.02939271      -0.13801589      -0.06102202 </v>
   <v>       0.03925191       0.09372213      -0.07727009 </v>
   <v>      -0.02352886      -0.19291784      -0.08114397 </v>
  </varray>
  <varray name="stress" >
   <v>      16.82806691       0.65459514      -2.28278475 </v>
   <v>       0.65459513      15.43483021       0.02730508 </v>
   <v>      -2.28278473       0.02730511      14.13752487 </v>
  </varray>
  <energy>
   <i name="e_fr_energy">   -335.33460635 </i>
   <i name="e_wo_entrp">   -335.33383615 </i>
   <i name="e_0_energy">     -0.00231060 </i>
  </energy>
  <time name="totalsc">  328.43  328.96</time>
 </calculation>
 <calculation>
  <scstep>
   <time name="dav">   19.36   19.39</time>
   <time name="total">   19.97   20.01</time>
   <energy>
    <i name="alphaZ">   1336.25295822 </i>
    <i name="ewald"> -11881.06185854 </i>
    <i name="hartreedc">  -2857.54087523 </i>
    <i name="XCdc">   -861.91159640 </i>
    <i name="pawpsdc">  21640.91927059 </i>
    <i name="pawaedc"> -20119.30260308 </i>
    <i name="eentropy">     -0.00106194 </i>
    <i name="bandstr">   -709.08033905 </i>
    <i name="atom">  13116.42875384 </i>
    <i name="e_fr_energy">   -335.29735159 </i>
    <i name="e_wo_entrp">   -335.29628964 </i>
    <i name="e_0_energy">   -335.29699760 </i>
   </energy>
  </scstep>
  <scstep>
   <time name="dav">   23.64   23.67</time>
   <time name="total">   24.25   24.30</time>
   <energy>
    <i name="e_fr_energy">   -335.39892487 </i>
    <i name="e_wo_entrp">   -335.39735885 </i>
    <i name="e_0_energy">   -335.39840286 </i>
   </energy>
  </scstep>
  <scstep>
   <time name="dav">   26.10   26.14</time>
   <time name="total">   26.72   26.75</time>
   <energy>
    <i name="e_fr_energy">   -335.40485976 </i>
    <i name="e_wo_entrp">   -335.40301122 </i>
    <i name="e_0_energy">   -335.40424358 </i>
   </energy>
  </scstep>
  <scstep>
   <time name="dav">   24.98   25.01</time>
   <time name="total">   25.58   25.61</time>
   <energy>
    <i name="e_fr_energy">   -335.39067214 </i>
    <i name="e_wo_entrp">   -335.38939794 </i>
    <i name="e_0_energy">   -335.39024741 </i>
   </energy>
  </scstep>
  <scstep>
   <time name="dav">   25.89   25.92</time>
   <time name="total">   26.49   26.53</time>
   <energy>
    <i name="e_fr_energy">   -335.39068695 </i>
    <i name="e_wo_entrp">   -335.38905954 </i>
    <i name="e_0_energy">   -335.39014448 </i>
   </energy>
  </scstep>
  <scstep>
   <time name="dav">   26.70   26.74</time>
   <time name="total">   27.30   27.33</time>
   <energy>
    <i name="e_fr_energy">   -335.38786497 </i>
    <i name="e_wo_entrp">   -335.38628546 </i>
    <i name="e_0_energy">   -335.38733846 </i>
   </energy>
  </scstep>
  <scstep>
   <time name="dav">   26.12   26.16</time>
   <time name="total">   26.72   26.76</time>
   <energy>
    <i name="e_fr_energy">   -335.38694923 </i>
    <i name="e_wo_entrp">   -335.38548939 </i>
    <i name="e_0_energy">   -335.38646262 </i>
   </energy>
  </scstep>
  <scstep>
   <time name="dav">   23.80   23.84</time>
   <time name="total">   24.40   24.45</time>
   <energy>
    <i name="e_fr_energy">   -335.38699960 </i>
    <i name="e_wo_entrp">   -335.38545501 </i>
    <i name="e_0_energy">   -335.38648474 </i>
   </energy>
  </scstep>
  <scstep>
   <time name="dav">   17.29   17.31</time>
   <time name="total">   17.32   17.34</time>
   <energy>
    <i name="alphaZ">   1336.25295822 </i>
    <i name="ewald"> -11881.06185854 </i>
    <i name="hartreedc">  -2867.00352165 </i>
    <i name="XCdc">   -861.60291930 </i>
    <i name="pawpsdc">  21454.62716103 </i>
    <i name="pawaedc"> -19932.71541179 </i>
    <i name="eentropy">     -0.00147349 </i>
    <i name="bandstr">   -700.31066423 </i>
    <i name="atom">  13116.42875384 </i>
    <i name="e_fr_energy">   -335.38697592 </i>
    <i name="e_wo_entrp">   -335.38550243 </i>
    <i name="e_0_energy">   -335.38648476 </i>
   </energy>
  </scstep>
  <structure>
   <crystal>
    <varray name="basis" >
     <v>      -3.13947399      -3.17540288      -3.16478426 </v>
     <v>       1.60435048       1.59522981      -7.95408192 </v>
     <v>       7.93070263      -7.99092697      -1.61197388 </v>
    </varray>
    <i name="volume">    480.32839819 </i>
    <varray name="rec_basis" >
     <v>      -0.13768071      -0.12594568      -0.05302943 </v>
     <v>       0.04199396       0.06278978      -0.10465857 </v>
     <v>       0.06309428      -0.06255940       0.00017962 </v>
    </varray>
   </crystal>
   <varray name="positions" >
    <v>       0.96595495       0.94122495       0.38807977 </v>
    <v>       0.62943833       0.26715713       0.40158600 </v>
    <v>       0.50378922       0.00276969      -0.00247122 </v>
    <v>      -0.00229740       0.00601712       0.00904292 </v>
    <v>       0.09468823       0.20756779       0.79960985 </v>
    <v>       0.03895066       0.06810617       0.59535007 </v>
    <v>       0.89721444       0.79436921       0.20399140 </v>
    <v>       0.80603338       0.59316661       0.39780201 </v>
    <v>       0.73984956       0.45796549       0.19896419 </v>
    <v>       0.65607756       0.34342541      -0.00147783 </v>
    <v>       0.36837929       0.72828074       0.59993313 </v>
    <v>       0.13263252       0.27105173       0.39432607 </v>
    <v>       0.83543084       0.66177766       0.00466521 </v>
    <v>       0.92941928       0.87001780       0.79789458 </v>
    <v>       0.56497106       0.13604535       0.19696808 </v>
    <v>       0.39634538       0.80481863       0.19682921 </v>
    <v>       0.43751543       0.85699747       0.79650188 </v>
    <v>       0.29980111       0.60231484       0.40224406 </v>
    <v>       0.85948080       0.73219576       0.59970993 </v>
    <v>       0.47376654       0.92732396       0.40933387 </v>
    <v>       0.16852780       0.32930641       0.00839101 </v>
    <v>       0.27002564       0.53502554       0.79772079 </v>
    <v>       0.20000099       0.39497035       0.59943599 </v>
    <v>       0.77043996       0.52514452       0.80066221 </v>
    <v>       0.69505790       0.41030505       0.60279572 </v>
    <v>       0.59674726       0.20237942       0.79788201 </v>
    <v>       0.53860964       0.06888503       0.60115763 </v>
    <v>       0.33504750       0.65640440       0.00284678 </v>
    <v>       0.23143550       0.47165245       0.20022468 </v>
   </varray>
  </structure>
  <varray name="forces" >
   <v>      -0.39442735       0.19326433      -0.21920155 </v>
   <v>       0.03843466       0.20789097      -0.07991976 </v>
   <v>      -0.36185053       0.02843349       0.11440799 </v>
   <v>       0.14903084      -0.09313518      -0.09638877 </v>
   <v>      -0.03428682      -0.28642538       0.31371004 </v>
   <v>      -0.10614909       0.12262924      -0.15317506 </v>
   <v>      -0.04713157       0.23027456       0.06214132 </v>
   <v>       0.10676300      -0.03106514      -0.12877785 </v>
   <v>       0.08150688      -0.04219073       0.19363934 </v>
   <v>      -0.08876261      -0.09534007       0.16858863 </v>
   <v>       0.06716991       0.08303606       0.04045546 </v>
   <v>      -0.10861036       0.05475489       0.06974555 </v>
   <v>      -0.02324776       0.13334897      -0.08828950 </v>
   <v>       0.20394769      -0.20235897      -0.09235025 </v>
   <v>       0.31183913       0.01280847       0.16552912 </v>
   <v>       0.25168519      -0.07219628      -0.03938342 </v>
   <v>       0.25169898      -0.00205362      -0.06585303 </v>
   <v>      -0.03131258       0.05151188      -0.11759735 </v>
   <v>      -0.22484393       0.19836000      -0.05271404 </v>
   <v>      -0.18932663      -0.23090607       0.06755328 </v>
   <v>       0.28473074      -0.14078347       0.19824216 </v>
   <v>       0.08687626      -0.02229373       0.19382131 </v>
   <v>      -0.03563182       0.08852416      -0.02139264 </v>
   <v>       0.13831218      -0.01399567      -0.38256525 </v>
   <v>      -0.20998199       0.00127058       0.27566843 </v>
   <v>      -0.09139059       0.01035558       0.02832706 </v>
   <v>      -0.01761362      -0.12167662       0.01819220 </v>
   <v>       0.06510879       0.24814996      -0.34282718 </v>
   <v>      -0.07253701      -0.31019220      -0.02958624 </v>
  </varray>
  <varray name="stress" >
   <v>       7.90826927       2.31158322      -1.96624733 </v>
   <v>       2.31158316       2.91708874       0.39236010 </v>
   <v>      -1.96624711       0.39236003       2.74056119 </v>
  </varray>
  <energy>
   <i name="e_fr_energy">   -335.38697592 </i>
   <i name="e_wo_entrp">   -335.38648476 </i>
   <i name="e_0_energy">     -0.00147349 </i>
  </energy>
  <time name="totalsc">  236.49  236.87</time>
 </calculation>
 <calculation>
  <scstep>
   <time name="dav">   18.35   18.37</time>
   <time name="total">   18.94   18.97</time>
   <energy>
    <i name="alphaZ">   1330.64013725 </i>
    <i name="ewald"> -11862.93368807 </i>
    <i name="hartreedc">  -2864.55112716 </i>
    <i name="XCdc">   -862.15078831 </i>
    <i name="pawpsdc">  21452.61224504 </i>
    <i name="pawaedc"> -19930.88716484 </i>
    <i name="eentropy">     -0.00071307 </i>
    <i name="bandstr">   -714.57768370 </i>
    <i name="atom">  13116.42875384 </i>
    <i name="e_fr_energy">   -335.42002902 </i>
    <i name="e_wo_entrp">   -335.41931595 </i>
    <i name="e_0_energy">   -335.41979133 </i>
   </energy>
  </scstep>
  <scstep>
   <time name="dav">   24.97   25.00</time>
   <time name="total">   25.58   25.62</time>
   <energy>
    <i name="e_fr_energy">   -335.46100503 </i>
    <i name="e_wo_entrp">   -335.45906748 </i>
    <i name="e_0_energy">   -335.46035918 </i>
   </energy>
  </scstep>
  <scstep>
   <time name="dav">   25.21   25.24</time>
   <time name="total">   25.81   25.84</time>
   <energy>
    <i name="e_fr_energy">   -335.45184116 </i>
    <i name="e_wo_entrp">   -335.45090583 </i>
    <i name="e_0_energy">   -335.45152938 </i>
   </energy>
  </scstep>
  <scstep>
   <time name="dav">   24.47   24.50</time>
   <time name="total">   25.07   25.10</time>
   <energy>
    <i name="e_fr_energy">   -335.44530414 </i>
    <i name="e_wo_entrp">   -335.44389707 </i>
    <i name="e_0_energy">   -335.44483511 </i>
   </energy>
  </scstep>
  <scstep>
   <time name="dav">   24.98   25.02</time>
   <time name="total">   25.59   25.63</time>
   <energy>
    <i name="e_fr_energy">   -335.44300291 </i>
    <i name="e_wo_entrp">   -335.44171264 </i>
    <i name="e_0_energy">   -335.44257282 </i>
   </energy>
  </scstep>
  <scstep>
   <time name="dav">   27.38   27.42</time>
   <time name="total">   27.98   28.01</time>
   <energy>
    <i name="e_fr_energy">   -335.44194979 </i>
    <i name="e_wo_entrp">   -335.44054867 </i>
    <i name="e_0_energy">   -335.44148275 </i>
   </energy>
  </scstep>
  <scstep>
   <time name="dav">   25.42   25.45</time>
   <time name="total">   26.02   26.05</time>
   <energy>
    <i name="e_fr_energy">   -335.44191395 </i>
    <i name="e_wo_entrp">   -335.44044226 </i>
    <i name="e_0_energy">   -335.44142339 </i>
   </energy>
  </scstep>
  <scstep>
   <time name="dav">   20.74   20.77</time>
   <time name="total">   21.34   21.38</time>
   <energy>
    <i name="e_fr_energy">   -335.44188999 </i>
    <i name="e_wo_entrp">   -335.44052965 </i>
    <i name="e_0_energy">   -335.44143654 </i>
   </energy>
  </scstep>
  <scstep>
   <time name="dav">   15.53   15.56</time>
   <time name="total">   15.56   15.60</time>
   <energy>
    <i name="alphaZ">   1330.64013725 </i>
    <i name="ewald"> -11862.93368807 </i>
    <i name="hartreedc">  -2871.73378833 </i>
    <i name="XCdc">   -861.94172556 </i>
    <i name="pawpsdc">  21296.18896787 </i>
    <i name="pawaedc"> -19774.35764511 </i>
    <i name="eentropy">     -0.00138299 </i>
    <i name="bandstr">   -707.73152331 </i>
    <i name="atom">  13116.42875384 </i>
    <i name="e_fr_energy">   -335.44189441 </i>
    <i name="e_wo_entrp">   -335.44051142 </i>
    <i name="e_0_energy">   -335.44143341 </i>
   </energy>
  </scstep>
  <structure>
   <crystal>
    <varray name="basis" >
     <v>      -3.14693022      -3.18085354      -3.16602783 </v>
     <v>       1.61400621       1.59697519      -7.96200986 </v>
     <v>       7.94514153      -7.99380640      -1.61911957 </v>
    </varray>
    <i name="volume">    482.35448867 </i>
    <varray name="rec_basis" >
     <v>      -0.13731076      -0.12572916      -0.05305278 </v>
     <v>       0.04179174       0.06271279      -0.10454610 </v>
     <v>       0.06298699      -0.06253881       0.00022462 </v>
[...]
       <r>    4.6536    1.0000 </r>
       <r>    4.7279    1.0000 </r>
       <r>    4.7514    1.0000 </r>
       <r>    4.8063    1.0000 </r>
       <r>    4.8646    1.0000 </r>
       <r>    4.9302    1.0000 </r>
       <r>    5.0246    1.0000 </r>
       <r>    5.0428    1.0000 </r>
       <r>    5.1045    1.0000 </r>
       <r>    5.1342    1.0000 </r>
       <r>    5.2017    1.0000 </r>
       <r>    5.2512    1.0000 </r>
       <r>    5.3255    1.0000 </r>
       <r>    5.3766    1.0000 </r>
       <r>    5.4191    1.0000 </r>
       <r>    5.4774    1.0000 </r>
       <r>    5.5156    1.0000 </r>
       <r>    5.5435    1.0000 </r>
       <r>    5.6186    1.0000 </r>
       <r>    5.6517    1.0000 </r>
       <r>    5.7600    1.0000 </r>
       <r>    5.8273    1.0000 </r>
       <r>    5.8521    1.0000 </r>
       <r>    5.9033    1.0000 </r>
       <r>    5.9658    1.0000 </r>
       <r>    6.0472    1.0000 </r>
       <r>    6.0830    1.0000 </r>
       <r>    6.1025    1.0000 </r>
       <r>    6.1443    1.0000 </r>
       <r>    6.1960    1.0000 </r>
       <r>    6.2621    1.0001 </r>
       <r>    6.3325    1.0005 </r>
       <r>    6.4111    1.0027 </r>
       <r>    6.4295    1.0039 </r>
       <r>    6.5114    1.0145 </r>
       <r>    6.5671    1.0268 </r>
       <r>    6.6159    1.0351 </r>
       <r>    6.6849    1.0163 </r>
       <r>    6.7644    0.8875 </r>
       <r>    6.8530    0.5755 </r>
       <r>    6.9173    0.3095 </r>
       <r>    6.9423    0.2182 </r>
       <r>    7.0030    0.0548 </r>
       <r>    7.2385   -0.0130 </r>
       <r>    7.3290   -0.0028 </r>
       <r>    7.4220   -0.0003 </r>
       <r>    7.4912   -0.0001 </r>
       <r>    7.6598   -0.0000 </r>
       <r>    7.7832   -0.0000 </r>
       <r>    7.8489   -0.0000 </r>
       <r>    7.9945   -0.0000 </r>
       <r>    8.0866   -0.0000 </r>
       <r>    8.1411   -0.0000 </r>
       <r>    8.3857   -0.0000 </r>
       <r>    8.6361   -0.0000 </r>
       <r>    8.6893   -0.0000 </r>
       <r>    8.8602   -0.0000 </r>
       <r>    8.8967   -0.0000 </r>
       <r>    8.9290   -0.0000 </r>
       <r>    8.9969   -0.0000 </r>
       <r>    9.0245   -0.0000 </r>
      </set>
     </set>
    </set>
   </array>
  </eigenvalues>
  <separator name="orbital magnetization" >
   <v name="MAGDIPOLOUT">      0.00000000      0.00000000      0.00000000</v>
  </separator>
  <dos>
   <i name="efermi">      6.87092478 </i>
   <total>
    <array>
     <dimension dim="1">gridpoints</dimension>
     <dimension dim="2">spin</dimension>
     <field>energy</field>
     <field>total</field>
     <field>integrated</field>
     <set>
      <set comment="spin 1">
       <r>   -50.1726     0.0000     0.0000 </r>
       <r>   -49.9650     0.0000     0.0000 </r>
       <r>   -49.7574     0.0000     0.0000 </r>
       <r>   -49.5498     0.0000     0.0000 </r>
       <r>   -49.3422     0.0000     0.0000 </r>
       <r>   -49.1346    -0.0000    -0.0000 </r>
       <r>   -48.9271    -0.0000    -0.0000 </r>
       <r>   -48.7195    -0.0000    -0.0000 </r>
       <r>   -48.5119    -0.0000    -0.0000 </r>
       <r>   -48.3043    -0.0000    -0.0000 </r>
       <r>   -48.0967    -0.0000    -0.0000 </r>
       <r>   -47.8891    -0.0065    -0.0013 </r>
       <r>   -47.6816    -0.3466    -0.0733 </r>
       <r>   -47.4740     0.6802     0.0679 </r>
       <r>   -47.2664    16.4476     3.4821 </r>
       <r>   -47.0588    26.1623     8.9130 </r>
       <r>   -46.8512    14.0436    11.8282 </r>
       <r>   -46.6436     1.1665    12.0703 </r>
       <r>   -46.4361    -0.3271    12.0025 </r>
       <r>   -46.2285    -0.0118    12.0000 </r>
       <r>   -46.0209    -0.0000    12.0000 </r>
       <r>   -45.8133    -0.0000    12.0000 </r>
       <r>   -45.6057    -0.0000    12.0000 </r>
       <r>   -45.3981     0.0000    12.0000 </r>
       <r>   -45.1906     0.0000    12.0000 </r>
       <r>   -44.9830     0.0000    12.0000 </r>
       <r>   -44.7754     0.0000    12.0000 </r>
       <r>   -44.5678     0.0000    12.0000 </r>
       <r>   -44.3602     0.0000    12.0000 </r>
       <r>   -44.1527     0.0000    12.0000 </r>
       <r>   -43.9451     0.0000    12.0000 </r>
       <r>   -43.7375     0.0000    12.0000 </r>
       <r>   -43.5299     0.0000    12.0000 </r>
       <r>   -43.3223     0.0000    12.0000 </r>
       <r>   -43.1147     0.0000    12.0000 </r>
       <r>   -42.9072     0.0000    12.0000 </r>
       <r>   -42.6996     0.0000    12.0000 </r>
       <r>   -42.4920     0.0000    12.0000 </r>
       <r>   -42.2844     0.0000    12.0000 </r>
       <r>   -42.0768     0.0000    12.0000 </r>
       <r>   -41.8692     0.0000    12.0000 </r>
       <r>   -41.6617     0.0000    12.0000 </r>
       <r>   -41.4541     0.0000    12.0000 </r>
       <r>   -41.2465     0.0000    12.0000 </r>
       <r>   -41.0389     0.0000    12.0000 </r>
       <r>   -40.8313     0.0000    12.0000 </r>
       <r>   -40.6237     0.0000    12.0000 </r>
       <r>   -40.4162     0.0000    12.0000 </r>
       <r>   -40.2086     0.0000    12.0000 </r>
       <r>   -40.0010     0.0000    12.0000 </r>
       <r>   -39.7934     0.0000    12.0000 </r>
       <r>   -39.5858     0.0000    12.0000 </r>
       <r>   -39.3782     0.0000    12.0000 </r>
       <r>   -39.1707     0.0000    12.0000 </r>
       <r>   -38.9631     0.0000    12.0000 </r>
       <r>   -38.7555     0.0000    12.0000 </r>
       <r>   -38.5479     0.0000    12.0000 </r>
       <r>   -38.3403     0.0000    12.0000 </r>
       <r>   -38.1327     0.0000    12.0000 </r>
       <r>   -37.9252     0.0000    12.0000 </r>
       <r>   -37.7176     0.0000    12.0000 </r>
       <r>   -37.5100     0.0000    12.0000 </r>
       <r>   -37.3024     0.0000    12.0000 </r>
       <r>   -37.0948     0.0000    12.0000 </r>
       <r>   -36.8872     0.0000    12.0000 </r>
       <r>   -36.6797     0.0000    12.0000 </r>
       <r>   -36.4721     0.0000    12.0000 </r>
       <r>   -36.2645     0.0000    12.0000 </r>
       <r>   -36.0569     0.0000    12.0000 </r>
       <r>   -35.8493     0.0000    12.0000 </r>
       <r>   -35.6417     0.0000    12.0000 </r>
       <r>   -35.4342     0.0000    12.0000 </r>
       <r>   -35.2266     0.0000    12.0000 </r>
       <r>   -35.0190     0.0000    12.0000 </r>
       <r>   -34.8114     0.0000    12.0000 </r>
       <r>   -34.6038     0.0000    12.0000 </r>
       <r>   -34.3963     0.0000    12.0000 </r>
       <r>   -34.1887     0.0000    12.0000 </r>
       <r>   -33.9811     0.0000    12.0000 </r>
       <r>   -33.7735     0.0000    12.0000 </r>
       <r>   -33.5659     0.0000    12.0000 </r>
       <r>   -33.3583     0.0000    12.0000 </r>
       <r>   -33.1508     0.0000    12.0000 </r>
       <r>   -32.9432     0.0000    12.0000 </r>
       <r>   -32.7356     0.0000    12.0000 </r>
       <r>   -32.5280     0.0000    12.0000 </r>
       <r>   -32.3204     0.0000    12.0000 </r>
       <r>   -32.1128     0.0000    12.0000 </r>
       <r>   -31.9053     0.0000    12.0000 </r>
       <r>   -31.6977     0.0000    12.0000 </r>
       <r>   -31.4901     0.0000    12.0000 </r>
       <r>   -31.2825     0.0000    12.0000 </r>
       <r>   -31.0749     0.0000    12.0000 </r>
       <r>   -30.8673     0.0000    12.0000 </r>
       <r>   -30.6598     0.0000    12.0000 </r>
       <r>   -30.4522     0.0000    12.0000 </r>
       <r>   -30.2446     0.0000    12.0000 </r>
       <r>   -30.0370     0.0000    12.0000 </r>
       <r>   -29.8294     0.0000    12.0000 </r>
       <r>   -29.6218     0.0000    12.0000 </r>
       <r>   -29.4143     0.0000    12.0000 </r>
       <r>   -29.2067     0.0000    12.0000 </r>
       <r>   -28.9991     0.0000    12.0000 </r>
       <r>   -28.7915     0.0000    12.0000 </r>
       <r>   -28.5839     0.0000    12.0000 </r>
       <r>   -28.3763     0.0000    12.0000 </r>
       <r>   -28.1688     0.0000    12.0000 </r>
       <r>   -27.9612     0.0000    12.0000 </r>
       <r>   -27.7536     0.0000    12.0000 </r>
       <r>   -27.5460     0.0000    12.0000 </r>
       <r>   -27.3384     0.0000    12.0000 </r>
       <r>   -27.1308     0.0000    12.0000 </r>
       <r>   -26.9233     0.0000    12.0000 </r>
       <r>   -26.7157     0.0000    12.0000 </r>
       <r>   -26.5081     0.0000    12.0000 </r>
       <r>   -26.3005     0.0000    12.0000 </r>
       <r>   -26.0929     0.0000    12.0000 </r>
       <r>   -25.8853     0.0000    12.0000 </r>
       <r>   -25.6778    -0.0000    12.0000 </r>
       <r>   -25.4702    -0.0000    12.0000 </r>
       <r>   -25.2626    -0.0000    12.0000 </r>
       <r>   -25.0550    -0.0000    12.0000 </r>
       <r>   -24.8474    -0.0000    12.0000 </r>
       <r>   -24.6399    -0.0000    12.0000 </r>
       <r>   -24.4323    -0.0074    11.9985 </r>
       <r>   -24.2247    -0.1597    11.9653 </r>
       <r>   -24.0171     0.3390    12.0357 </r>
       <r>   -23.8095     7.6620    13.6262 </r>
       <r>   -23.6019    23.3978    18.4832 </r>
       <r>   -23.3944    38.3773    26.4497 </r>
       <r>   -23.1868    50.3606    36.9037 </r>
       <r>   -22.9792    40.1523    45.2386 </r>
       <r>   -22.7716    10.6745    47.4545 </r>
       <r>   -22.5640     2.4524    47.9635 </r>
       <r>   -22.3564     0.2606    48.0176 </r>
       <r>   -22.1489    -0.0823    48.0006 </r>
       <r>   -21.9413    -0.0027    48.0000 </r>
       <r>   -21.7337    -0.0000    48.0000 </r>
       <r>   -21.5261    -0.0000    48.0000 </r>
       <r>   -21.3185    -0.0000    48.0000 </r>
       <r>   -21.1109     0.0000    48.0000 </r>
       <r>   -20.9034     0.0000    48.0000 </r>
       <r>   -20.6958     0.0000    48.0000 </r>
       <r>   -20.4882     0.0000    48.0000 </r>
       <r>   -20.2806     0.0000    48.0000 </r>
       <r>   -20.0730     0.0000    48.0000 </r>
       <r>   -19.8654     0.0000    48.0000 </r>
       <r>   -19.6579     0.0000    48.0000 </r>
       <r>   -19.4503     0.0000    48.0000 </r>
       <r>   -19.2427     0.0000    48.0000 </r>
       <r>   -19.0351     0.0000    48.0000 </r>
       <r>   -18.8275     0.0000    48.0000 </r>
       <r>   -18.6199     0.0000    48.0000 </r>
       <r>   -18.4124     0.0000    48.0000 </r>
       <r>   -18.2048     0.0000    48.0000 </r>
       <r>   -17.9972     0.0000    48.0000 </r>
       <r>   -17.7896     0.0000    48.0000 </r>
       <r>   -17.5820     0.0000    48.0000 </r>
       <r>   -17.3744     0.0000    48.0000 </r>
       <r>   -17.1669     0.0000    48.0000 </r>
       <r>   -16.9593     0.0000    48.0000 </r>
       <r>   -16.7517     0.0000    48.0000 </r>
       <r>   -16.5441     0.0000    48.0000 </r>
       <r>   -16.3365     0.0000    48.0000 </r>
       <r>   -16.1290     0.0000    48.0000 </r>
       <r>   -15.9214     0.0000    48.0000 </r>
       <r>   -15.7138     0.0000    48.0000 </r>
       <r>   -15.5062     0.0000    48.0000 </r>
       <r>   -15.2986     0.0000    48.0000 </r>
       <r>   -15.0910     0.0000    48.0000 </r>
       <r>   -14.8835     0.0000    48.0000 </r>
       <r>   -14.6759     0.0000    48.0000 </r>
       <r>   -14.4683     0.0000    48.0000 </r>
       <r>   -14.2607     0.0000    48.0000 </r>
       <r>   -14.0531     0.0000    48.0000 </r>
       <r>   -13.8455     0.0000    48.0000 </r>
       <r>   -13.6380     0.0000    48.0000 </r>
       <r>   -13.4304     0.0000    48.0000 </r>
       <r>   -13.2228     0.0000    48.0000 </r>
       <r>   -13.0152     0.0000    48.0000 </r>
       <r>   -12.8076     0.0000    48.0000 </r>
       <r>   -12.6000     0.0000    48.0000 </r>
       <r>   -12.3925     0.0000    48.0000 </r>
       <r>   -12.1849     0.0000    48.0000 </r>
       <r>   -11.9773     0.0000    48.0000 </r>
       <r>   -11.7697     0.0000    48.0000 </r>
       <r>   -11.5621     0.0000    48.0000 </r>
       <r>   -11.3545     0.0000    48.0000 </r>
       <r>   -11.1470     0.0000    48.0000 </r>
       <r>   -10.9394     0.0000    48.0000 </r>
       <r>   -10.7318     0.0000    48.0000 </r>
       <r>   -10.5242     0.0000    48.0000 </r>
       <r>   -10.3166     0.0000    48.0000 </r>
       <r>   -10.1090     0.0000    48.0000 </r>
       <r>    -9.9015     0.0000    48.0000 </r>
       <r>    -9.6939     0.0000    48.0000 </r>
       <r>    -9.4863     0.0000    48.0000 </r>
       <r>    -9.2787     0.0000    48.0000 </r>
       <r>    -9.0711     0.0000    48.0000 </r>
       <r>    -8.8635     0.0000    48.0000 </r>
       <r>    -8.6560     0.0000    48.0000 </r>
       <r>    -8.4484     0.0000    48.0000 </r>
       <r>    -8.2408     0.0000    48.0000 </r>
       <r>    -8.0332     0.0000    48.0000 </r>
       <r>    -7.8256     0.0000    48.0000 </r>
       <r>    -7.6180     0.0000    48.0000 </r>
       <r>    -7.4105     0.0000    48.0000 </r>
       <r>    -7.2029     0.0000    48.0000 </r>
       <r>    -6.9953     0.0000    48.0000 </r>
       <r>    -6.7877     0.0000    48.0000 </r>
       <r>    -6.5801     0.0000    48.0000 </r>
       <r>    -6.3726     0.0000    48.0000 </r>
       <r>    -6.1650     0.0000    48.0000 </r>
       <r>    -5.9574     0.0000    48.0000 </r>
       <r>    -5.7498     0.0000    48.0000 </r>
       <r>    -5.5422     0.0000    48.0000 </r>
       <r>    -5.3346     0.0000    48.0000 </r>
       <r>    -5.1271     0.0000    48.0000 </r>
       <r>    -4.9195     0.0000    48.0000 </r>
       <r>    -4.7119     0.0000    48.0000 </r>
       <r>    -4.5043     0.0000    48.0000 </r>
       <r>    -4.2967     0.0000    48.0000 </r>
       <r>    -4.0891     0.0000    48.0000 </r>
       <r>    -3.8816     0.0000    48.0000 </r>
       <r>    -3.6740     0.0000    48.0000 </r>
       <r>    -3.4664     0.0000    48.0000 </r>
       <r>    -3.2588     0.0000    48.0000 </r>
       <r>    -3.0512     0.0000    48.0000 </r>
       <r>    -2.8436     0.0000    48.0000 </r>
       <r>    -2.6361     0.0000    48.0000 </r>
       <r>    -2.4285     0.0000    48.0000 </r>
       <r>    -2.2209    -0.0000    48.0000 </r>
       <r>    -2.0133    -0.0000    48.0000 </r>
       <r>    -1.8057    -0.0000    48.0000 </r>
       <r>    -1.5981    -0.0000    48.0000 </r>
       <r>    -1.3906    -0.0000    48.0000 </r>
       <r>    -1.1830    -0.0000    48.0000 </r>
       <r>    -0.9754    -0.0005    47.9999 </r>
       <r>    -0.7678    -0.0109    47.9976 </r>
       <r>    -0.5602     0.0421    48.0064 </r>
       <r>    -0.3526     0.4632    48.1025 </r>
       <r>    -0.1451     1.1354    48.3382 </r>
       <r>     0.0625     1.7958    48.7110 </r>
       <r>     0.2701     1.6564    49.0548 </r>
       <r>     0.4777     1.5485    49.3763 </r>
       <r>     0.6853     2.7743    49.9522 </r>
       <r>     0.8929     3.3045    50.6381 </r>
       <r>     1.1004     2.9298    51.2463 </r>
       <r>     1.3080     2.8842    51.8450 </r>
       <r>     1.5156     4.4639    52.7716 </r>
       <r>     1.7232     3.7662    53.5534 </r>
       <r>     1.9308     4.7440    54.5382 </r>
       <r>     2.1384     7.3920    56.0726 </r>
       <r>     2.3459    10.2893    58.2085 </r>
       <r>     2.5535    14.9067    61.3029 </r>
       <r>     2.7611    19.0889    65.2654 </r>
       <r>     2.9687    22.2491    69.8840 </r>
       <r>     3.1763    26.6154    75.4089 </r>
       <r>     3.3838    28.3964    81.3035 </r>
       <r>     3.5914    28.6104    87.2425 </r>
       <r>     3.7990    29.2064    93.3053 </r>
       <r>     4.0066    31.0948    99.7600 </r>
       <r>     4.2142    28.5557   105.6877 </r>
       <r>     4.4218    24.1855   110.7082 </r>
       <r>     4.6293    28.0292   116.5266 </r>
       <r>     4.8369    34.8049   123.7515 </r>
       <r>     5.0445    39.1350   131.8752 </r>
       <r>     5.2521    41.0447   140.3954 </r>
       <r>     5.4597    38.4597   148.3790 </r>
       <r>     5.6673    36.7925   156.0165 </r>
       <r>     5.8748    36.0619   163.5023 </r>
       <r>     6.0824    37.7715   171.3430 </r>
       <r>     6.2900    38.6663   179.3695 </r>
       <r>     6.4976    38.4810   187.3575 </r>
       <r>     6.7052    35.6944   194.7670 </r>
       <r>     6.9128    31.0155   201.2053 </r>
       <r>     7.1203    25.3992   206.4778 </r>
       <r>     7.3279    21.3719   210.9142 </r>
       <r>     7.5355    17.0298   214.4493 </r>
       <r>     7.7431    15.0929   217.5823 </r>
       <r>     7.9507    16.1386   220.9324 </r>
       <r>     8.1583    19.4434   224.9686 </r>
       <r>     8.3658    20.8544   229.2976 </r>
       <r>     8.5734    21.0795   233.6733 </r>
       <r>     8.7810    16.2417   237.0448 </r>
       <r>     8.9886     9.4835   239.0134 </r>
       <r>     9.1962     4.1734   239.8798 </r>
       <r>     9.4038     0.6614   240.0171 </r>
       <r>     9.6113    -0.0704   240.0024 </r>
       <r>     9.8189    -0.0116   240.0000 </r>
       <r>    10.0265    -0.0001   240.0000 </r>
       <r>    10.2341    -0.0000   240.0000 </r>
       <r>    10.4417    -0.0000   240.0000 </r>
       <r>    10.6493    -0.0000   240.0000 </r>
       <r>    10.8568     0.0000   240.0000 </r>
       <r>    11.0644     0.0000   240.0000 </r>
       <r>    11.2720     0.0000   240.0000 </r>
       <r>    11.4796     0.0000   240.0000 </r>
       <r>    11.6872     0.0000   240.0000 </r>
       <r>    11.8948     0.0000   240.0000 </r>
       <r>    12.1023     0.0000   240.0000 </r>
      </set>
     </set>
    </array>
   </total>
  </dos>
 </calculation>
 <structure name="finalpos" >
  <crystal>
   <varray name="basis" >
    <v>      -3.15057821      -3.19293758      -3.15099649 </v>
    <v>       1.64708590       1.59363610      -7.94583494 </v>
    <v>       7.93100787      -7.96356202      -1.64906962 </v>
   </varray>
   <i name="volume">    481.33739555 </i>
   <varray name="rec_basis" >
    <v>      -0.13692093      -0.12528077      -0.05350885 </v>
    <v>       0.04119310       0.06271298      -0.10473534 </v>
    <v>       0.06314094      -0.06279158       0.00049480 </v>
   </varray>
  </crystal>
  <varray name="positions" >
   <v>       0.97714096       0.94919207       0.37757694 </v>
   <v>       0.62612670       0.26939824       0.40097225 </v>
   <v>       0.50733386       0.00053560      -0.00479050 </v>
   <v>      -0.00372872       0.00765446       0.01326714 </v>
   <v>       0.09589481       0.20401260       0.80232392 </v>
   <v>       0.04271029       0.06940638       0.59299231 </v>
   <v>       0.89389987       0.79453305       0.20204997 </v>
   <v>       0.80607723       0.59567127       0.39816915 </v>
   <v>       0.73712417       0.45511498       0.20010986 </v>
   <v>       0.65237986       0.34154498       0.00026615 </v>
   <v>       0.36834049       0.72860818       0.59977364 </v>
   <v>       0.13234259       0.27115650       0.39373227 </v>
   <v>       0.83493114       0.66126908       0.00451131 </v>
   <v>       0.93040218       0.87102719       0.79898702 </v>
   <v>       0.54644840       0.13369728       0.19969725 </v>
   <v>       0.39594873       0.80371679       0.19735369 </v>
   <v>       0.43675341       0.85776650       0.79677730 </v>
   <v>       0.30013222       0.60460120       0.40162738 </v>
   <v>       0.86226480       0.73467185       0.59522435 </v>
   <v>       0.48533780       0.92170488       0.41056908 </v>
   <v>       0.16057760       0.32604288       0.01443924 </v>
   <v>       0.26928582       0.53278996       0.79950544 </v>
   <v>       0.20051438       0.39565084       0.59872979 </v>
   <v>       0.77081485       0.52712610       0.80182024 </v>
   <v>       0.69763818       0.40804103       0.60226701 </v>
   <v>       0.59855676       0.20198259       0.79732179 </v>
   <v>       0.54270292       0.06844122       0.60096651 </v>
   <v>       0.33276886       0.65956388       0.00207203 </v>
   <v>       0.23261318       0.47174508       0.20168745 </v>
  </varray>
 </structure>
</modeling>
