SQS with 1 vacancy for VFE and VRV      
           1
    -3.190000   -3.190000   -3.190000
     1.595000    1.595000   -7.975000
     7.975000   -7.975000   -1.595000
   Nb   Mo   Ta   Ti   W 
   6   6   6   5   6
Direct configuration=     1
   0.96666667  0.93333333  0.40000000
   0.63333333  0.26666667  0.40000000
   0.50000000  0.00000000  0.00000000
   0.00000000  0.00000000  0.00000000
   0.10000000  0.20000000  0.80000000
   0.03333333  0.06666667  0.60000000
   0.90000000  0.80000000  0.20000000
   0.80000000  0.60000000  0.40000000
   0.73333333  0.46666667  0.20000000
   0.66666667  0.33333333  0.00000000
   0.36666667  0.73333333  0.60000000
   0.13333333  0.26666667  0.40000000
   0.83333333  0.66666667  0.00000000
   0.93333333  0.86666667  0.80000000
   0.56666667  0.13333333  0.20000000
   0.40000000  0.80000000  0.20000000
   0.43333333  0.86666667  0.80000000
   0.30000000  0.60000000  0.40000000
   0.86666667  0.73333333  0.60000000
   0.46666667  0.93333333  0.40000000
   0.16666667  0.33333333  0.00000000
   0.26666667  0.53333333  0.80000000
   0.20000000  0.40000000  0.60000000
   0.76666667  0.53333333  0.80000000
   0.70000000  0.40000000  0.60000000
   0.60000000  0.20000000  0.80000000
   0.53333333  0.06666667  0.60000000
   0.33333333  0.66666667  0.00000000
   0.23333333  0.46666667  0.20000000
SQS with 1 vacancy for VFE and VRV      
           1
    -3.128810   -3.147068   -3.142843
     1.580384    1.577262   -7.876815
     7.862269   -7.894420   -1.584915
   Nb   Mo   Ta   Ti   W 
   6   6   6   5   6
Direct configuration=     2
   0.96600299  0.93687291  0.39456694
   0.63147384  0.26680810  0.40099400
   0.50187063  0.00150039 -0.00109205
  -0.00122028  0.00268421  0.00428150
   0.09711098  0.20416459  0.79969012
   0.03598892  0.06722234  0.59782260
   0.89884254  0.79699602  0.20206987
   0.80302342  0.59637923  0.39878873
   0.73617954  0.46298811  0.19942154
   0.66123165  0.33851620 -0.00083080
   0.36769024  0.73085485  0.59999233
   0.13300179  0.26911290  0.39736729
   0.83425733  0.66414393  0.00244347
   0.93109901  0.86842860  0.79872870
   0.56623793  0.13479822  0.19825998
   0.39879169  0.80176612  0.19814705
   0.43584408  0.86164178  0.79808740
   0.29992324  0.60112004  0.40102175
   0.86299890  0.73277013  0.60011212
   0.46981505  0.93053706  0.40466942
   0.16791429  0.33164052  0.00382224
   0.26850155  0.53433468  0.79889657
   0.20014154  0.39733450  0.59972100
   0.76832199  0.52900509  0.80026813
   0.69741363  0.40533661  0.60154198
   0.59847704  0.20112095  0.79892808
   0.53588087  0.06787599  0.60063307
   0.33441121  0.66125017  0.00160368
   0.23210772  0.46946244  0.20004329
SQS with 1 vacancy for VFE and VRV      
           1
    -3.145376   -3.158691   -3.155610
     1.584341    1.582064   -7.903396
     7.892788   -7.916235   -1.587645
   Nb   Mo   Ta   Ti   W 
   6   6   6   5   6
Direct configuration=     3
   0.96617762  0.93590406  0.39605583
   0.63198678  0.26676898  0.40072102
   0.50135408  0.00108966 -0.00079210
  -0.00087960  0.00194776  0.00310793
   0.09790448  0.20302327  0.79977434
   0.03525519  0.06707075  0.59842019
   0.89916451  0.79781862  0.20150210
   0.80219081  0.59737186  0.39912144
   0.73539654  0.46399643  0.19958077
   0.66272480  0.33709574 -0.00060457
   0.36740921  0.73153407  0.59999463
   0.13308896  0.26844311  0.39808880
   0.83400691  0.66483477  0.00177401
   0.93171172  0.86794587  0.79907648
   0.56635327  0.13439713  0.19873677
   0.39912131  0.80128245  0.19865455
   0.43515199  0.86301923  0.79861207
   0.29994541  0.60081293  0.40074178
   0.86400846  0.73292409  0.60008019
   0.46895551  0.93130261  0.40339064
   0.16757640  0.33210371  0.00277508
   0.26799495  0.53406069  0.79919960
   0.20010291  0.39806493  0.59979736
   0.76786795  0.53019115  0.80019494
   0.69812597  0.40387381  0.60111887
   0.59889443  0.20081388  0.79922141
   0.53518038  0.06754473  0.60046046
   0.33411809  0.66273411  0.00116424
   0.23244431  0.46869626  0.20003119
SQS with 1 vacancy for VFE and VRV      
           1
    -3.141573   -3.169460   -3.161522
     1.597235    1.590548   -7.936057
     7.917220   -7.964366   -1.603322
   Nb   Mo   Ta   Ti   W 
   6   6   6   5   6
Direct configuration=     4
   0.96602623  0.93933893  0.39090807
   0.63034451  0.26701937  0.40127880
   0.50292210  0.00217418 -0.00187525
  -0.00178981  0.00457370  0.00693856
   0.09582981  0.20595634  0.79966779
   0.03763473  0.06773937  0.59643946
   0.89791030  0.79559204  0.20310816
   0.80466794  0.59465789  0.39827037
   0.73826824  0.46010407  0.19918336
   0.65843731  0.34118097 -0.00116920
   0.36803535  0.72943432  0.59995493
   0.13279099  0.27012707  0.39566026
   0.83492798  0.66286144  0.00364020
   0.93023240  0.86928319  0.79831329
   0.56546036  0.13546104  0.19759501
   0.39732941  0.80356487  0.19747605
   0.43667541  0.85913288  0.79725019
   0.29985322  0.60178217  0.40171147
   0.86108957  0.73245393  0.59984022
   0.47206281  0.92873432  0.40722738
   0.16819501  0.33029783  0.00639983
   0.26930259  0.53468360  0.79824561
   0.20003770  0.39606764  0.59956390
   0.76952768  0.52693396  0.80049675
   0.69614785  0.40802447  0.60220093
   0.59750876  0.20182437  0.79835656
   0.53739129  0.06840981  0.60091124
   0.33472022  0.65864865  0.00225001
   0.23179338  0.47060422  0.20015605
SQS with 1 vacancy for VFE and VRV      
           1
    -3.139474   -3.175403   -3.164784
     1.604350    1.595230   -7.954082
     7.930703   -7.990927   -1.611974
   Nb   Mo   Ta   Ti   W 
   6   6   6   5   6
Direct configuration=     5
   0.96595495  0.94122495  0.38807977
   0.62943833  0.26715713  0.40158600
   0.50378922  0.00276969 -0.00247122
  -0.00229740  0.00601712  0.00904292
   0.09468823  0.20756779  0.79960985
   0.03895066  0.06810617  0.59535007
   0.89721444  0.79436921  0.20399140
   0.80603338  0.59316661  0.39780201
   0.73984956  0.45796549  0.19896419
   0.65607756  0.34342541 -0.00147783
   0.36837929  0.72828074  0.59993313
   0.13263252  0.27105173  0.39432607
   0.83543084  0.66177766  0.00466521
   0.92941928  0.87001780  0.79789458
   0.56497106  0.13604535  0.19696808
   0.39634538  0.80481863  0.19682921
   0.43751543  0.85699747  0.79650188
   0.29980111  0.60231484  0.40224406
   0.85948080  0.73219576  0.59970993
   0.47376654  0.92732396  0.40933387
   0.16852780  0.32930641  0.00839101
   0.27002564  0.53502554  0.79772079
   0.20000099  0.39497035  0.59943599
   0.77043996  0.52514452  0.80066221
   0.69505790  0.41030505  0.60279572
   0.59674726  0.20237942  0.79788201
   0.53860964  0.06888503  0.60115763
   0.33504750  0.65640440  0.00284678
   0.23143550  0.47165245  0.20022468
SQS with 1 vacancy for VFE and VRV      
           1
    -3.146930   -3.180854   -3.166028
     1.614006    1.596975   -7.962010
     7.945142   -7.993806   -1.619120
   Nb   Mo   Ta   Ti   W 
   6   6   6   5   6
Direct configuration=     6
   0.96712338  0.94183388  0.38690591
   0.62862900  0.26781227  0.40130185
   0.50496112  0.00208231 -0.00319149
  -0.00242472  0.00637982  0.00956904
   0.09531570  0.20617062  0.80005255
   0.03921736  0.06866605  0.59489399
   0.89645503  0.79448082  0.20354318
   0.80598536  0.59354839  0.39802408
   0.73946737  0.45731721  0.19917418
   0.65639860  0.34275893 -0.00148100
   0.36777975  0.72833427  0.59990537
   0.13274808  0.27085738  0.39397501
   0.83520306  0.66219600  0.00443602
   0.92944643  0.87020747  0.79859374
   0.56344636  0.13597600  0.19747147
   0.39563862  0.80516292  0.19737353
   0.43668402  0.85738661  0.79691776
   0.29991300  0.60274030  0.40212175
   0.85965304  0.73242405  0.59895454
   0.47529797  0.92642706  0.40950232
   0.16764217  0.32876382  0.00923849
   0.26951196  0.53453336  0.79789108
   0.19985536  0.39509692  0.59921064
   0.77056700  0.52632813  0.80093841
   0.69540531  0.40935208  0.60244930
   0.59698729  0.20223188  0.79767949
   0.53913905  0.06861741  0.60135223
   0.33444185  0.65782682  0.00255118
   0.23284481  0.47115389  0.20064540
SQS with 1 vacancy for VFE and VRV      
           1
    -3.154610   -3.186467   -3.167309
     1.623951    1.598773   -7.970175
     7.960013   -7.996772   -1.626479
   Nb   Mo   Ta   Ti   W 
   6   6   6   5   6
Direct configuration=     7
   0.96832385  0.94246224  0.38569806
   0.62779733  0.26848602  0.40100906
   0.50616425  0.00137680 -0.00393201
  -0.00255453  0.00675217  0.01011011
   0.09595976  0.20473336  0.80050880
   0.03949161  0.06924261  0.59442451
   0.89567384  0.79459574  0.20308189
   0.80593673  0.59394077  0.39825236
   0.73907395  0.45664997  0.19939050
   0.65672789  0.34207361 -0.00148388
   0.36716339  0.72838904  0.59987671
   0.13286621  0.27065797  0.39361396
   0.83496907  0.66262645  0.00419998
   0.92947547  0.87040173  0.79931295
   0.56187938  0.13590323  0.19798920
   0.39491310  0.80551600  0.19793326
   0.43583022  0.85778592  0.79734532
   0.30002837  0.60317811  0.40199571
   0.85982942  0.73265986  0.59817728
   0.47687162  0.92550519  0.40967630
   0.16673211  0.32820425  0.01011054
   0.26898350  0.53402664  0.79806647
   0.19970549  0.39522730  0.59897871
   0.77069933  0.52754527  0.80122199
   0.69576093  0.40837250  0.60209343
   0.59723365  0.20208049  0.79747123
   0.53968327  0.06834220  0.60155264
   0.33382045  0.65928988  0.00224625
   0.23429369  0.47064135  0.20107869
SQS with 1 vacancy for VFE and VRV      
           1
    -3.151453   -3.182587   -3.159588
     1.627573    1.595522   -7.954662
     7.948510   -7.977428   -1.628656
   Nb   Mo   Ta   Ti   W 
   6   6   6   5   6
Direct configuration=     8
   0.96938988  0.94307547  0.38461308
   0.62716012  0.26894818  0.40089027
   0.50706297  0.00091254 -0.00440161
  -0.00259481  0.00701721  0.01060855
   0.09624266  0.20386236  0.80088879
   0.03979637  0.06955977  0.59404320
   0.89507815  0.79460839  0.20274775
   0.80596872  0.59420748  0.39838219
   0.73871815  0.45626750  0.19951615
   0.65669344  0.34176608 -0.00146239
   0.36676362  0.72840990  0.59991263
   0.13294087  0.27058399  0.39332893
   0.83486135  0.66277127  0.00415423
   0.92937372  0.87064234  0.79969845
   0.56041224  0.13574920  0.19833904
   0.39444040  0.80570758  0.19826877
   0.43529232  0.85804826  0.79753058
   0.30011255  0.60348479  0.40184088
   0.85993005  0.73291884  0.59757285
   0.47829853  0.92469335  0.40986728
   0.16595461  0.32775619  0.01088984
   0.26871152  0.53365254  0.79824717
   0.19960296  0.39528941  0.59877737
   0.77074532  0.52816957  0.80141448
   0.69606604  0.40774995  0.60190533
   0.59754064  0.20198921  0.79728442
   0.54015827  0.06815014  0.60168440
   0.33344838  0.66018499  0.00213534
   0.23516430  0.47049016  0.20132203
SQS with 1 vacancy for VFE and VRV      
           1
    -3.148751   -3.179266   -3.152981
     1.630673    1.592741   -7.941386
     7.938667   -7.960874   -1.630518
   Nb   Mo   Ta   Ti   W 
   6   6   6   5   6
Direct configuration=     9
   0.97030314  0.94360241  0.38368261
   0.62661439  0.26934421  0.40078822
   0.50783242  0.00051530 -0.00480403
  -0.00262880  0.00724397  0.01103583
   0.09648463  0.20311553  0.80121493
   0.04005752  0.06983207  0.59371615
   0.89456751  0.79461929  0.20246123
   0.80599642  0.59443600  0.39849341
   0.73841304  0.45593942  0.19962401
   0.65666368  0.34150244 -0.00144384
   0.36642110  0.72842760  0.59994340
   0.13300462  0.27052084  0.39308457
   0.83476913  0.66289542  0.00411494
   0.92928696  0.87084824  0.80002890
   0.55915517  0.13561634  0.19863900
   0.39403571  0.80587135  0.19855634
   0.43483172  0.85827278  0.79768931
   0.30018482  0.60374784  0.40170801
   0.86001610  0.73314137  0.59705451
   0.47952072  0.92399782  0.41003138
   0.16528852  0.32737119  0.01155816
   0.26847829  0.53333162  0.79840223
   0.19951502  0.39534278  0.59860471
   0.77078534  0.52870457  0.80157930
   0.69632688  0.40721657  0.60174430
   0.59780352  0.20191123  0.79712429
   0.54056522  0.06798558  0.60179746
   0.33313019  0.66095222  0.00203990
   0.23591036  0.47036067  0.20153076
SQS with 1 vacancy for VFE and VRV      
           1
    -3.148671   -3.180681   -3.152190
     1.633373    1.592624   -7.941298
     7.937805   -7.960485   -1.633416
   Nb   Mo   Ta   Ti   W 
   6   6   6   5   6
Direct configuration=    10
   0.97097694  0.94416246  0.38298093
   0.62647534  0.26937343  0.40086844
   0.50795781  0.00052460 -0.00477112
  -0.00252648  0.00739499  0.01138114
   0.09636409  0.20315198  0.80138693
   0.04035615  0.06973762  0.59353797
   0.89432709  0.79455860  0.20239515
   0.80607038  0.59454397  0.39846722
   0.73836521  0.45584737  0.19962695
   0.65624492  0.34163698 -0.00136521
   0.36635483  0.72844817  0.60002190
   0.13298387  0.27051077  0.39296116
   0.83487593  0.66263133  0.00426743
   0.92920341  0.87093341  0.79994418
   0.55807082  0.13539226  0.19869575
   0.39395391  0.80597048  0.19853308
   0.43493684  0.85826578  0.79756353
   0.30015409  0.60380641  0.40167344
   0.86007934  0.73332020  0.59680427
   0.48034907  0.92356463  0.41018657
   0.16487784  0.32709071  0.01202535
   0.26853342  0.53322383  0.79853736
   0.19947727  0.39535752  0.59851335
   0.77075352  0.52850151  0.80160777
   0.69650134  0.40720149  0.60176960
   0.59798004  0.20197814  0.79707093
   0.54077793  0.06795885  0.60171910
   0.33309017  0.66094218  0.00212902
   0.23576824  0.47063702  0.20146778
SQS with 1 vacancy for VFE and VRV      
           1
    -3.148431   -3.184927   -3.149817
     1.641473    1.592271   -7.941036
     7.935219   -7.959315   -1.642108
   Nb   Mo   Ta   Ti   W 
   6   6   6   5   6
Direct configuration=    11
   0.97299914  0.94584338  0.38087523
   0.62605824  0.26946095  0.40110914
   0.50833394  0.00055252 -0.00467243
  -0.00221960  0.00784774  0.01241707
   0.09600243  0.20326111  0.80190300
   0.04125197  0.06945460  0.59300338
   0.89360589  0.79437647  0.20219700
   0.80629239  0.59486790  0.39838855
   0.73822161  0.45557121  0.19963584
   0.65498886  0.34204030 -0.00112926
   0.36615603  0.72850976  0.60025740
   0.13292169  0.27048066  0.39259090
   0.83519591  0.66183905  0.00472505
   0.92895295  0.87118894  0.79969000
   0.55481790  0.13471950  0.19886644
   0.39370864  0.80626780  0.19846328
   0.43525225  0.85824494  0.79718613
   0.30006199  0.60398214  0.40156972
   0.86026940  0.73385692  0.59605338
   0.48283324  0.92226546  0.41065217
   0.16364536  0.32624870  0.01342730
   0.26869858  0.53290040  0.79894285
   0.19936413  0.39540181  0.59823924
   0.77065782  0.52789233  0.80169331
   0.69702463  0.40715631  0.60184544
   0.59850964  0.20217898  0.79691077
   0.54141600  0.06787885  0.60148395
   0.33297004  0.66091196  0.00239641
   0.23534226  0.47146598  0.20127873
SQS with 1 vacancy for VFE and VRV      
           1
    -3.147952   -3.193417   -3.145071
     1.657673    1.591567   -7.940510
     7.930048   -7.956977   -1.659494
   Nb   Mo   Ta   Ti   W 
   6   6   6   5   6
Direct configuration=    12
   0.97704849  0.94921000  0.37665989
   0.62522420  0.26963509  0.40159079
   0.50908585  0.00060854 -0.00447523
  -0.00160649  0.00875147  0.01448877
   0.09527894  0.20347803  0.80293547
   0.04304304  0.06889057  0.59193373
   0.89216390  0.79401195  0.20180119
   0.80673703  0.59551593  0.39823070
   0.73793393  0.45501888  0.19965399
   0.65247823  0.34284502 -0.00065696
   0.36575840  0.72863230  0.60072858
   0.13279782  0.27042105  0.39185028
   0.83583330  0.66025447  0.00564118
   0.92845311  0.87170005  0.79918139
   0.54831279  0.13337078  0.19921047
   0.39321902  0.80686216  0.19832346
   0.43588330  0.85820425  0.79643099
   0.29987839  0.60433358  0.40136209
   0.86065155  0.73493155  0.59455056
   0.48779628  0.91966955  0.41158357
   0.16117760  0.32456147  0.01623348
   0.26902754  0.53225318  0.79975426
   0.19913840  0.39549073  0.59769089
   0.77046506  0.52667406  0.80186513
   0.69807062  0.40706639  0.60199690
   0.59956909  0.20258137  0.79658986
   0.54269180  0.06771996  0.60101326
   0.33272944  0.66085095  0.00293143
   0.23449268  0.47312333  0.20089989
SQS with 1 vacancy for VFE and VRV      
           1
    -3.148251   -3.188111   -3.148037
     1.647549    1.592007   -7.940838
     7.933280   -7.958438   -1.648629
   Nb   Mo   Ta   Ti   W 
   6   6   6   5   6
Direct configuration=    13
   0.97451170  0.94710010  0.37929915
   0.62574520  0.26952738  0.40128947
   0.50861640  0.00057329 -0.00459822
  -0.00198883  0.00818890  0.01319429
   0.09573132  0.20334414  0.80228982
   0.04192443  0.06924054  0.59260277
   0.89306454  0.79424010  0.20204791
   0.80645836  0.59511073  0.39832998
   0.73811434  0.45536405  0.19964217
   0.65404535  0.34234451 -0.00095261
   0.36600694  0.72855654  0.60043392
   0.13287463  0.27045755  0.39231326
   0.83543818  0.66124477  0.00506755
   0.92876412  0.87138058  0.79949956
   0.55237713  0.13421765  0.19899217
   0.39352385  0.80649109  0.19841110
   0.43548865  0.85822844  0.79690333
   0.29999240  0.60411397  0.40149208
   0.86041020  0.73425847  0.59549103
   0.48470130  0.92128879  0.41100125
   0.16272328  0.32561992  0.01447696
   0.26882367  0.53265810  0.79924662
   0.19927878  0.39543473  0.59803372
   0.77058722  0.52743528  0.80175682
   0.69741768  0.40712206  0.60190251
   0.59890668  0.20232902  0.79679115
   0.54189492  0.06781788  0.60130790
   0.33288022  0.66088979  0.00259680
   0.23502066  0.47208831  0.20113756
SQS with 1 vacancy for VFE and VRV      
           1
    -3.149370   -3.191670   -3.150741
     1.647483    1.592869   -7.946080
     7.933059   -7.964347   -1.650017
   Nb   Mo   Ta   Ti   W 
   6   6   6   5   6
Direct configuration=    14
   0.97507396  0.94756820  0.37886859
   0.62575379  0.26940090  0.40110283
   0.50854739  0.00069866 -0.00469997
  -0.00238743  0.00808219  0.01328379
   0.09591344  0.20368326  0.80219946
   0.04211114  0.06913575  0.59268184
   0.89331089  0.79437092  0.20222252
   0.80634666  0.59513808  0.39819588
   0.73794566  0.45538617  0.19977475
   0.65358706  0.34230394 -0.00066983
   0.36655918  0.72843147  0.60021329
   0.13282498  0.27056022  0.39246540
   0.83531418  0.66131210  0.00497810
   0.92914379  0.87128107  0.79934051
   0.55131029  0.13412712  0.19915888
   0.39406568  0.80592485  0.19822075
   0.43567187  0.85803321  0.79698055
   0.29999211  0.60425163  0.40154101
   0.86065738  0.73428808  0.59548919
   0.48480551  0.92133031  0.41097569
   0.16236142  0.32563230  0.01458931
   0.26894646  0.53276245  0.79933015
   0.19958025  0.39537962  0.59817121
   0.77052500  0.52728685  0.80172486
   0.69731184  0.40746821  0.60201367
   0.59859135  0.20220147  0.79696084
   0.54200309  0.06800739  0.60113923
   0.33291050  0.66056030  0.00247104
   0.23455589  0.47205996  0.20127646
SQS with 1 vacancy for VFE and VRV      
           1
    -3.150254   -3.194480   -3.152876
     1.647430    1.593550   -7.950219
     7.932885   -7.969013   -1.651113
   Nb   Mo   Ta   Ti   W 
   6   6   6   5   6
Direct configuration=    15
   0.97551778  0.94793750  0.37852872
   0.62576070  0.26930107  0.40095552
   0.50849299  0.00079757 -0.00478026
  -0.00270196  0.00799800  0.01335447
   0.09605715  0.20395085  0.80212814
   0.04225841  0.06905306  0.59274423
   0.89350513  0.79447418  0.20236031
   0.80625862  0.59515964  0.39809005
   0.73781248  0.45540365  0.19987941
   0.65322530  0.34227198 -0.00044659
   0.36699505  0.72833273  0.60003908
   0.13278569  0.27064126  0.39258549
   0.83521639  0.66136522  0.00490752
   0.92944346  0.87120252  0.79921492
   0.55046848  0.13405573  0.19929059
   0.39449339  0.80547798  0.19807041
   0.43581641  0.85787916  0.79704148
   0.29999183  0.60436026  0.40157965
   0.86085239  0.73431143  0.59548770
   0.48488773  0.92136307  0.41095550
   0.16207585  0.32564209  0.01467803
   0.26904327  0.53284481  0.79939607
   0.19981802  0.39533616  0.59827970
   0.77047595  0.52716973  0.80169964
   0.69722821  0.40774138  0.60210144
   0.59834246  0.20210086  0.79709480
   0.54208851  0.06815689  0.60100610
   0.33293452  0.66030028  0.00237176
   0.23418910  0.47203763  0.20138615
SQS with 1 vacancy for VFE and VRV      
           1
    -3.149054   -3.194258   -3.152300
     1.646325    1.592973   -7.947818
     7.927930   -7.966707   -1.650656
   Nb   Mo   Ta   Ti   W 
   6   6   6   5   6
Direct configuration=    16
   0.97584950  0.94820488  0.37830645
   0.62579500  0.26925622  0.40085310
   0.50837998  0.00083890 -0.00482404
  -0.00295051  0.00790598  0.01336960
   0.09610975  0.20412943  0.80208285
   0.04234501  0.06903904  0.59280282
   0.89366498  0.79453692  0.20242716
   0.80620000  0.59518248  0.39802692
   0.73766176  0.45543125  0.19996043
   0.65297181  0.34221556 -0.00027083
   0.36736640  0.72827917  0.59990584
   0.13273180  0.27073517  0.39273036
   0.83514828  0.66142452  0.00483811
   0.92967467  0.87114296  0.79912887
   0.54976622  0.13399723  0.19939678
   0.39489774  0.80507130  0.19792402
   0.43599000  0.85778469  0.79705411
   0.29999595  0.60442274  0.40160825
   0.86103714  0.73433637  0.59548474
   0.48492531  0.92141221  0.41091754
   0.16182525  0.32569114  0.01470544
   0.26910141  0.53289737  0.79944195
   0.20001043  0.39531299  0.59837217
   0.77045650  0.52710179  0.80169087
   0.69718393  0.40792305  0.60216588
   0.59823138  0.20202387  0.79717581
   0.54216159  0.06826623  0.60094048
   0.33293013  0.66009127  0.00230625
   0.23387190  0.47201195  0.20147807
SQS with 1 vacancy for VFE and VRV      
           1
    -3.147107   -3.193899   -3.151367
     1.644533    1.592036   -7.943924
     7.919892   -7.962968   -1.649914
   Nb   Mo   Ta   Ti   W 
   6   6   6   5   6
Direct configuration=    17
   0.97638775  0.94863867  0.37794576
   0.62585072  0.26918344  0.40068690
   0.50819667  0.00090597 -0.00489507
  -0.00335374  0.00775668  0.01339418
   0.09619507  0.20441918  0.80200936
   0.04248547  0.06901630  0.59289788
   0.89392427  0.79463871  0.20253563
   0.80610492  0.59521951  0.39792448
   0.73741718  0.45547605  0.20009190
   0.65256048  0.34212404  0.00001439
   0.36796894  0.72819224  0.59968958
   0.13264427  0.27088757  0.39296546
   0.83503781  0.66152074  0.00472551
   0.93004982  0.87104630  0.79898920
   0.54862687  0.13390233  0.19956918
   0.39555388  0.80441143  0.19768642
   0.43627164  0.85763140  0.79707459
   0.30000259  0.60452411  0.40165468
   0.86133685  0.73437682  0.59547991
   0.48498630  0.92149194  0.41085595
   0.16141867  0.32577072  0.01474995
   0.26919570  0.53298266  0.79951639
   0.20032254  0.39527541  0.59852221
   0.77042498  0.52699155  0.80167664
   0.69711203  0.40821782  0.60227046
   0.59805114  0.20189896  0.79730728
   0.54228018  0.06844363  0.60083400
   0.33292309  0.65975214  0.00219993
   0.23335725  0.47197032  0.20162726
SQS with 1 vacancy for VFE and VRV      
           1
    -3.147450   -3.193650   -3.151199
     1.644752    1.592013   -7.943642
     7.920546   -7.962168   -1.649801
   Nb   Mo   Ta   Ti   W 
   6   6   6   5   6
Direct configuration=    18
   0.97654214  0.94874408  0.37788992
   0.62592196  0.26921838  0.40070711
   0.50800667  0.00085677 -0.00485491
  -0.00339673  0.00773149  0.01336488
   0.09610640  0.20438863  0.80204692
   0.04250449  0.06908623  0.59291088
   0.89395255  0.79463019  0.20246278
   0.80609994  0.59528124  0.39795482
   0.73733558  0.45545313  0.20011025
   0.65253609  0.34202072  0.00007895
   0.36808078  0.72825378  0.59968031
   0.13258219  0.27092928  0.39309659
   0.83504674  0.66150460  0.00468891
   0.93009695  0.87102502  0.79897798
   0.54823372  0.13388025  0.19960268
   0.39570114  0.80425555  0.19760170
   0.43642079  0.85766114  0.79701352
   0.30000558  0.60450565  0.40165719
   0.86147895  0.73440848  0.59544343
   0.48502340  0.92153103  0.41079979
   0.16125265  0.32581711  0.01471155
   0.26918256  0.53295293  0.79952823
   0.20037074  0.39532455  0.59855612
   0.77048374  0.52701646  0.80169620
   0.69718466  0.40818259  0.60226740
   0.59817504  0.20190929  0.79729753
   0.54234023  0.06843916  0.60086236
   0.33287022  0.65970890  0.00219300
   0.23319418  0.47195006  0.20165391
SQS with 1 vacancy for VFE and VRV      
           1
    -3.148476   -3.192903   -3.150695
     1.645407    1.591943   -7.942796
     7.922508   -7.959767   -1.649461
   Nb   Mo   Ta   Ti   W 
   6   6   6   5   6
Direct configuration=    19
   0.97700530  0.94906033  0.37772242
   0.62613569  0.26932320  0.40076773
   0.50743667  0.00070918 -0.00473442
  -0.00352573  0.00765592  0.01327699
   0.09584039  0.20429693  0.80215960
   0.04256158  0.06929600  0.59294987
   0.89403735  0.79460465  0.20224425
   0.80608500  0.59546641  0.39804584
   0.73709080  0.45538435  0.20016528
   0.65246294  0.34171071  0.00027261
   0.36841630  0.72843839  0.59965250
   0.13239603  0.27105440  0.39348998
   0.83507352  0.66145619  0.00457912
   0.93023833  0.87096120  0.79894432
   0.54705427  0.13381398  0.19970315
   0.39614283  0.80378790  0.19734759
   0.43686821  0.85775036  0.79683031
   0.30001453  0.60445028  0.40166472
   0.86190524  0.73450349  0.59533400
   0.48513469  0.92164830  0.41063128
   0.16075456  0.32595627  0.01459634
   0.26914315  0.53286371  0.79956374
   0.20051536  0.39547195  0.59865783
   0.77066004  0.52709119  0.80175488
   0.69740253  0.40807691  0.60225822
   0.59854674  0.20194030  0.79726831
   0.54252042  0.06842574  0.60094746
   0.33271160  0.65957915  0.00217221
   0.23270498  0.47188928  0.20173386
SQS with 1 vacancy for VFE and VRV      
           1
    -3.149134   -3.192914   -3.150789
     1.645932    1.592473   -7.943747
     7.925168   -7.960954   -1.649338
   Nb   Mo   Ta   Ti   W 
   6   6   6   5   6
Direct configuration=    20
   0.97704775  0.94910156  0.37767689
   0.62613286  0.26934668  0.40083174
   0.50740451  0.00065486 -0.00475197
  -0.00358925  0.00765547  0.01327391
   0.09585742  0.20420795  0.80221103
   0.04260811  0.06933054  0.59296315
   0.89399434  0.79458224  0.20218345
   0.80608256  0.59553052  0.39808443
   0.73710125  0.45530006  0.20014793
   0.65243694  0.34165885  0.00027059
   0.36839257  0.72849153  0.59969042
   0.13237929  0.27108636  0.39356581
   0.83502897  0.66139763  0.00455790
   0.93028960  0.87098185  0.79895768
   0.54686467  0.13377746  0.19970131
   0.39608209  0.80376565  0.19734950
   0.43683229  0.85775541  0.79681372
   0.30005136  0.60449751  0.40165303
   0.86201776  0.73455617  0.59529968
   0.48519825  0.92166600  0.41061181
   0.16069919  0.32598337  0.01454718
   0.26918780  0.53284063  0.79954549
   0.20051504  0.39552793  0.59868035
   0.77070848  0.52710211  0.80177533
   0.69747627  0.40806568  0.60226097
   0.59854987  0.20195353  0.79728505
   0.54257753  0.06843058  0.60095342
   0.33272953  0.65957437  0.00214086
   0.23267625  0.47184415  0.20171933
SQS with 1 vacancy for VFE and VRV      
           1
    -3.150578   -3.192938   -3.150996
     1.647086    1.593636   -7.945835
     7.931008   -7.963562   -1.649070
   Nb   Mo   Ta   Ti   W 
   6   6   6   5   6
Direct configuration=    21
   0.97714096  0.94919207  0.37757694
   0.62612670  0.26939824  0.40097225
   0.50733386  0.00053560 -0.00479050
  -0.00372872  0.00765446  0.01326714
   0.09589481  0.20401260  0.80232392
   0.04271029  0.06940638  0.59299231
   0.89389987  0.79453305  0.20204997
   0.80607723  0.59567127  0.39816915
   0.73712417  0.45511498  0.20010986
   0.65237986  0.34154498  0.00026615
   0.36834049  0.72860818  0.59977364
   0.13234259  0.27115650  0.39373227
   0.83493114  0.66126908  0.00451131
   0.93040218  0.87102719  0.79898702
   0.54644840  0.13369728  0.19969725
   0.39594873  0.80371679  0.19735369
   0.43675341  0.85776650  0.79677730
   0.30013222  0.60460120  0.40162738
   0.86226480  0.73467185  0.59522435
   0.48533780  0.92170488  0.41056908
   0.16057760  0.32604288  0.01443924
   0.26928582  0.53278996  0.79950544
   0.20051438  0.39565084  0.59872979
   0.77081485  0.52712610  0.80182024
   0.69763818  0.40804103  0.60226701
   0.59855676  0.20198259  0.79732179
   0.54270292  0.06844122  0.60096651
   0.33276886  0.65956388  0.00207203
   0.23261318  0.47174508  0.20168745
