  29  29   0   0
  0.1679057E+02  0.5525242E-09  0.8287863E-09  0.1139058E-08  0.5000000E-15
  1.000000000000000E-004
  CAR 
 SQS with 1 vacancy for VFE and VRV      
     12.13015306    -50.23129339  301      6.80319607      1.00000000
    -50.231  0.0000E+00  0.0000E+00
    -50.023  0.0000E+00  0.0000E+00
    -49.816  0.0000E+00  0.0000E+00
    -49.608  0.0000E+00  0.0000E+00
    -49.400  0.0000E+00  0.0000E+00
    -49.192 -0.2191E-35 -0.4555E-36
    -48.984 -0.1133E-27 -0.2356E-28
    -48.776 -0.5217E-21 -0.1084E-21
    -48.568 -0.2661E-15 -0.5532E-16
    -48.360 -0.1542E-10 -0.3206E-11
    -48.153 -0.9978E-07 -0.2074E-07
    -47.945 -0.6971E-04 -0.1451E-04
    -47.737 -0.4732E-02 -0.9983E-03
    -47.529 -0.4191E-02 -0.1870E-02
    -47.321  0.2947E+00  0.5939E-01
    -47.113  0.5842E+00  0.1808E+00
    -46.905  0.2822E+00  0.2395E+00
    -46.697  0.8113E-02  0.2412E+00
    -46.490 -0.5595E-02  0.2400E+00
    -46.282 -0.1291E-03  0.2400E+00
    -46.074 -0.2693E-06  0.2400E+00
    -45.866 -0.5855E-10  0.2400E+00
    -45.658 -0.1384E-14  0.2400E+00
    -45.450  0.0000E+00  0.2400E+00
    -45.242  0.0000E+00  0.2400E+00
    -45.035  0.0000E+00  0.2400E+00
    -44.827  0.0000E+00  0.2400E+00
    -44.619  0.0000E+00  0.2400E+00
    -44.411  0.0000E+00  0.2400E+00
    -44.203  0.0000E+00  0.2400E+00
    -43.995  0.0000E+00  0.2400E+00
    -43.787  0.0000E+00  0.2400E+00
    -43.579  0.0000E+00  0.2400E+00
    -43.372  0.0000E+00  0.2400E+00
    -43.164  0.0000E+00  0.2400E+00
    -42.956  0.0000E+00  0.2400E+00
    -42.748  0.0000E+00  0.2400E+00
    -42.540  0.0000E+00  0.2400E+00
    -42.332  0.0000E+00  0.2400E+00
    -42.124  0.0000E+00  0.2400E+00
    -41.916  0.0000E+00  0.2400E+00
    -41.709  0.0000E+00  0.2400E+00
    -41.501  0.0000E+00  0.2400E+00
    -41.293  0.0000E+00  0.2400E+00
    -41.085  0.0000E+00  0.2400E+00
    -40.877  0.0000E+00  0.2400E+00
    -40.669  0.0000E+00  0.2400E+00
    -40.461  0.0000E+00  0.2400E+00
    -40.253  0.0000E+00  0.2400E+00
    -40.046  0.0000E+00  0.2400E+00
    -39.838  0.0000E+00  0.2400E+00
    -39.630  0.0000E+00  0.2400E+00
    -39.422  0.0000E+00  0.2400E+00
    -39.214  0.0000E+00  0.2400E+00
    -39.006  0.0000E+00  0.2400E+00
    -38.798  0.0000E+00  0.2400E+00
    -38.590  0.0000E+00  0.2400E+00
    -38.383  0.0000E+00  0.2400E+00
    -38.175  0.0000E+00  0.2400E+00
    -37.967  0.0000E+00  0.2400E+00
    -37.759  0.0000E+00  0.2400E+00
    -37.551  0.0000E+00  0.2400E+00
    -37.343  0.0000E+00  0.2400E+00
    -37.135  0.0000E+00  0.2400E+00
    -36.928  0.0000E+00  0.2400E+00
    -36.720  0.0000E+00  0.2400E+00
    -36.512  0.0000E+00  0.2400E+00
    -36.304  0.0000E+00  0.2400E+00
    -36.096  0.0000E+00  0.2400E+00
    -35.888  0.0000E+00  0.2400E+00
    -35.680  0.0000E+00  0.2400E+00
    -35.472  0.0000E+00  0.2400E+00
    -35.265  0.0000E+00  0.2400E+00
    -35.057  0.0000E+00  0.2400E+00
    -34.849  0.0000E+00  0.2400E+00
    -34.641  0.0000E+00  0.2400E+00
    -34.433  0.0000E+00  0.2400E+00
    -34.225  0.0000E+00  0.2400E+00
    -34.017  0.0000E+00  0.2400E+00
    -33.809  0.0000E+00  0.2400E+00
    -33.602  0.0000E+00  0.2400E+00
    -33.394  0.0000E+00  0.2400E+00
    -33.186  0.0000E+00  0.2400E+00
    -32.978  0.0000E+00  0.2400E+00
    -32.770  0.0000E+00  0.2400E+00
    -32.562  0.0000E+00  0.2400E+00
    -32.354  0.0000E+00  0.2400E+00
    -32.146  0.0000E+00  0.2400E+00
    -31.939  0.0000E+00  0.2400E+00
    -31.731  0.0000E+00  0.2400E+00
    -31.523  0.0000E+00  0.2400E+00
    -31.315  0.0000E+00  0.2400E+00
    -31.107  0.0000E+00  0.2400E+00
    -30.899  0.0000E+00  0.2400E+00
    -30.691  0.0000E+00  0.2400E+00
    -30.484  0.0000E+00  0.2400E+00
    -30.276  0.0000E+00  0.2400E+00
    -30.068  0.0000E+00  0.2400E+00
    -29.860  0.0000E+00  0.2400E+00
    -29.652  0.0000E+00  0.2400E+00
    -29.444  0.0000E+00  0.2400E+00
    -29.236  0.0000E+00  0.2400E+00
    -29.028  0.0000E+00  0.2400E+00
    -28.821  0.0000E+00  0.2400E+00
    -28.613  0.0000E+00  0.2400E+00
    -28.405  0.0000E+00  0.2400E+00
    -28.197  0.0000E+00  0.2400E+00
    -27.989  0.0000E+00  0.2400E+00
    -27.781  0.0000E+00  0.2400E+00
    -27.573  0.0000E+00  0.2400E+00
    -27.365  0.0000E+00  0.2400E+00
    -27.158  0.0000E+00  0.2400E+00
    -26.950  0.0000E+00  0.2400E+00
    -26.742  0.0000E+00  0.2400E+00
    -26.534  0.0000E+00  0.2400E+00
    -26.326  0.0000E+00  0.2400E+00
    -26.118  0.0000E+00  0.2400E+00
    -25.910 -0.3092E-35  0.2400E+00
    -25.702 -0.1031E-27  0.2400E+00
    -25.495 -0.3896E-21  0.2400E+00
    -25.287 -0.1618E-15  0.2400E+00
    -25.079 -0.7604E-11  0.2400E+00
    -24.871 -0.3955E-07  0.2400E+00
    -24.663 -0.2223E-04  0.2400E+00
    -24.455 -0.1265E-02  0.2397E+00
    -24.247 -0.2054E-02  0.2393E+00
    -24.039  0.7348E-01  0.2546E+00
    -23.832  0.2139E+00  0.2990E+00
    -23.624  0.4260E+00  0.3876E+00
    -23.416  0.8457E+00  0.5634E+00
    -23.208  0.1070E+01  0.7858E+00
    -23.000  0.4615E+00  0.8817E+00
    -22.792  0.2948E+00  0.9430E+00
    -22.584  0.9280E-01  0.9623E+00
    -22.377 -0.9978E-02  0.9602E+00
    -22.169 -0.8867E-03  0.9600E+00
    -21.961 -0.5568E-05  0.9600E+00
    -21.753 -0.3893E-08  0.9600E+00
    -21.545 -0.3186E-12  0.9600E+00
    -21.337  0.0000E+00  0.9600E+00
    -21.129  0.0000E+00  0.9600E+00
    -20.921  0.0000E+00  0.9600E+00
    -20.714  0.0000E+00  0.9600E+00
    -20.506  0.0000E+00  0.9600E+00
    -20.298  0.0000E+00  0.9600E+00
    -20.090  0.0000E+00  0.9600E+00
    -19.882  0.0000E+00  0.9600E+00
    -19.674  0.0000E+00  0.9600E+00
    -19.466  0.0000E+00  0.9600E+00
    -19.258  0.0000E+00  0.9600E+00
    -19.051  0.0000E+00  0.9600E+00
    -18.843  0.0000E+00  0.9600E+00
    -18.635  0.0000E+00  0.9600E+00
    -18.427  0.0000E+00  0.9600E+00
    -18.219  0.0000E+00  0.9600E+00
    -18.011  0.0000E+00  0.9600E+00
    -17.803  0.0000E+00  0.9600E+00
    -17.595  0.0000E+00  0.9600E+00
    -17.388  0.0000E+00  0.9600E+00
    -17.180  0.0000E+00  0.9600E+00
    -16.972  0.0000E+00  0.9600E+00
    -16.764  0.0000E+00  0.9600E+00
    -16.556  0.0000E+00  0.9600E+00
    -16.348  0.0000E+00  0.9600E+00
    -16.140  0.0000E+00  0.9600E+00
    -15.932  0.0000E+00  0.9600E+00
    -15.725  0.0000E+00  0.9600E+00
    -15.517  0.0000E+00  0.9600E+00
    -15.309  0.0000E+00  0.9600E+00
    -15.101  0.0000E+00  0.9600E+00
    -14.893  0.0000E+00  0.9600E+00
    -14.685  0.0000E+00  0.9600E+00
    -14.477  0.0000E+00  0.9600E+00
    -14.270  0.0000E+00  0.9600E+00
    -14.062  0.0000E+00  0.9600E+00
    -13.854  0.0000E+00  0.9600E+00
    -13.646  0.0000E+00  0.9600E+00
    -13.438  0.0000E+00  0.9600E+00
    -13.230  0.0000E+00  0.9600E+00
    -13.022  0.0000E+00  0.9600E+00
    -12.814  0.0000E+00  0.9600E+00
    -12.607  0.0000E+00  0.9600E+00
    -12.399  0.0000E+00  0.9600E+00
    -12.191  0.0000E+00  0.9600E+00
    -11.983  0.0000E+00  0.9600E+00
    -11.775  0.0000E+00  0.9600E+00
    -11.567  0.0000E+00  0.9600E+00
    -11.359  0.0000E+00  0.9600E+00
    -11.151  0.0000E+00  0.9600E+00
    -10.944  0.0000E+00  0.9600E+00
    -10.736  0.0000E+00  0.9600E+00
    -10.528  0.0000E+00  0.9600E+00
    -10.320  0.0000E+00  0.9600E+00
    -10.112  0.0000E+00  0.9600E+00
     -9.904  0.0000E+00  0.9600E+00
     -9.696  0.0000E+00  0.9600E+00
     -9.488  0.0000E+00  0.9600E+00
     -9.281  0.0000E+00  0.9600E+00
     -9.073  0.0000E+00  0.9600E+00
     -8.865  0.0000E+00  0.9600E+00
     -8.657  0.0000E+00  0.9600E+00
     -8.449  0.0000E+00  0.9600E+00
     -8.241  0.0000E+00  0.9600E+00
     -8.033  0.0000E+00  0.9600E+00
     -7.826  0.0000E+00  0.9600E+00
     -7.618  0.0000E+00  0.9600E+00
     -7.410  0.0000E+00  0.9600E+00
     -7.202  0.0000E+00  0.9600E+00
     -6.994  0.0000E+00  0.9600E+00
     -6.786  0.0000E+00  0.9600E+00
     -6.578  0.0000E+00  0.9600E+00
     -6.370  0.0000E+00  0.9600E+00
     -6.163  0.0000E+00  0.9600E+00
     -5.955  0.0000E+00  0.9600E+00
     -5.747  0.0000E+00  0.9600E+00
     -5.539  0.0000E+00  0.9600E+00
     -5.331  0.0000E+00  0.9600E+00
     -5.123  0.0000E+00  0.9600E+00
     -4.915  0.0000E+00  0.9600E+00
     -4.707  0.0000E+00  0.9600E+00
     -4.500  0.0000E+00  0.9600E+00
     -4.292  0.0000E+00  0.9600E+00
     -4.084  0.0000E+00  0.9600E+00
     -3.876  0.0000E+00  0.9600E+00
     -3.668  0.0000E+00  0.9600E+00
     -3.460  0.0000E+00  0.9600E+00
     -3.252  0.0000E+00  0.9600E+00
     -3.044  0.0000E+00  0.9600E+00
     -2.837  0.0000E+00  0.9600E+00
     -2.629  0.0000E+00  0.9600E+00
     -2.421  0.0000E+00  0.9600E+00
     -2.213 -0.4729E-34  0.9600E+00
     -2.005 -0.7753E-27  0.9600E+00
     -1.797 -0.1447E-20  0.9600E+00
     -1.589 -0.2972E-15  0.9600E+00
     -1.381 -0.7075E-11  0.9600E+00
     -1.174 -0.1900E-07  0.9600E+00
     -0.966 -0.5661E-05  0.9600E+00
     -0.758 -0.1654E-03  0.9600E+00
     -0.550  0.3709E-03  0.9600E+00
     -0.342  0.7402E-02  0.9616E+00
     -0.134  0.2036E-01  0.9658E+00
      0.074  0.3431E-01  0.9729E+00
      0.281  0.3730E-01  0.9807E+00
      0.489  0.3274E-01  0.9875E+00
      0.697  0.5494E-01  0.9989E+00
      0.905  0.6605E-01  0.1013E+01
      1.113  0.6011E-01  0.1025E+01
      1.321  0.6390E-01  0.1038E+01
      1.529  0.8998E-01  0.1057E+01
      1.737  0.8284E-01  0.1074E+01
      1.944  0.1042E+00  0.1096E+01
      2.152  0.1376E+00  0.1125E+01
      2.360  0.2053E+00  0.1167E+01
      2.568  0.3186E+00  0.1234E+01
      2.776  0.4054E+00  0.1318E+01
      2.984  0.4766E+00  0.1417E+01
      3.192  0.5576E+00  0.1533E+01
      3.400  0.5633E+00  0.1650E+01
      3.607  0.5815E+00  0.1771E+01
      3.815  0.6068E+00  0.1897E+01
      4.023  0.5855E+00  0.2019E+01
      4.231  0.5572E+00  0.2134E+01
      4.439  0.5075E+00  0.2240E+01
      4.647  0.6006E+00  0.2365E+01
      4.855  0.7610E+00  0.2523E+01
      5.063  0.7758E+00  0.2684E+01
      5.270  0.7803E+00  0.2846E+01
      5.478  0.7265E+00  0.2997E+01
      5.686  0.7176E+00  0.3147E+01
      5.894  0.7529E+00  0.3303E+01
      6.102  0.7433E+00  0.3458E+01
      6.310  0.7728E+00  0.3618E+01
      6.518  0.7733E+00  0.3779E+01
      6.725  0.7134E+00  0.3927E+01
      6.933  0.6458E+00  0.4062E+01
      7.141  0.5005E+00  0.4166E+01
      7.349  0.4074E+00  0.4250E+01
      7.557  0.3471E+00  0.4322E+01
      7.765  0.3017E+00  0.4385E+01
      7.973  0.2993E+00  0.4447E+01
      8.181  0.3689E+00  0.4524E+01
      8.388  0.4209E+00  0.4612E+01
      8.596  0.3910E+00  0.4693E+01
      8.804  0.2760E+00  0.4750E+01
      9.012  0.1533E+00  0.4782E+01
      9.220  0.7366E-01  0.4797E+01
      9.428  0.1376E-01  0.4800E+01
      9.636 -0.1213E-02  0.4800E+01
      9.844 -0.2327E-03  0.4800E+01
     10.051 -0.2808E-05  0.4800E+01
     10.259 -0.3621E-08  0.4800E+01
     10.467 -0.5268E-12  0.4800E+01
     10.675 -0.8887E-17  0.4800E+01
     10.883  0.0000E+00  0.4800E+01
     11.091  0.0000E+00  0.4800E+01
     11.299  0.0000E+00  0.4800E+01
     11.507  0.0000E+00  0.4800E+01
     11.714  0.0000E+00  0.4800E+01
     11.922  0.0000E+00  0.4800E+01
     12.130  0.0000E+00  0.4800E+01
