   29   29   50    1
  0.1679057E+02  0.5525242E-09  0.8287863E-09  0.1139058E-08  0.5000000E-15
  1.000000000000000E-004
  CAR 
 SQS with 1 vacancy for VFE and VRV      
    199     63    120
 
  0.0000000E+00  0.0000000E+00  0.0000000E+00  0.8000000E-02
    1      -47.396682   1.000000
    2      -47.335573   1.000000
    3      -47.247089   1.000000
    4      -47.165374   1.000000
    5      -47.134674   1.000000
    6      -47.015436   1.000000
    7      -24.127946   1.000000
    8      -23.903756   1.000000
    9      -23.716952   1.000000
   10      -23.671046   1.000000
   11      -23.583380   1.000000
   12      -23.506711   1.000000
   13      -23.440762   1.000000
   14      -23.429382   1.000000
   15      -23.407085   1.000000
   16      -23.345150   1.000000
   17      -23.318687   1.000000
   18      -23.307652   1.000000
   19      -23.243912   1.000000
   20      -23.201635   1.000000
   21      -23.179999   1.000000
   22      -22.973727   1.000000
   23      -22.837933   1.000000
   24      -22.772706   1.000000
   25       -0.498916   1.000000
   26        0.832113   1.000000
   27        1.132492   1.000000
   28        2.006591   1.000000
   29        2.097451   1.000000
   30        2.130482   1.000000
   31        2.288204   1.000000
   32        2.513941   1.000000
   33        2.522518   1.000000
   34        2.555435   1.000000
   35        2.677739   1.000000
   36        2.762475   1.000000
   37        2.846428   1.000000
   38        2.856754   1.000000
   39        2.910221   1.000000
   40        2.945749   1.000000
   41        3.073230   1.000000
   42        3.221707   1.000000
   43        3.283710   1.000000
   44        3.371349   1.000000
   45        3.438212   1.000000
   46        3.485469   1.000000
   47        3.573740   1.000000
   48        3.661528   1.000000
   49        3.693109   1.000000
   50        3.723377   1.000000
   51        3.827523   1.000000
   52        3.849074   1.000000
   53        3.887753   1.000000
   54        4.048812   1.000000
   55        4.172551   1.000000
   56        4.216846   1.000000
   57        4.265805   1.000000
   58        4.405233   1.000000
   59        4.426569   1.000000
   60        4.565168   1.000000
   61        4.643448   1.000000
   62        4.671133   1.000000
   63        4.706128   1.000000
   64        4.788800   1.000000
   65        4.827469   1.000000
   66        4.910655   1.000000
   67        4.925261   1.000000
   68        4.938638   1.000000
   69        4.967320   1.000000
   70        5.008599   1.000000
   71        5.092772   1.000000
   72        5.155933   1.000000
   73        5.224968   1.000000
   74        5.305102   1.000000
   75        5.383893   1.000000
   76        5.407627   1.000000
   77        5.533035   1.000000
   78        5.593914   1.000000
   79        5.683951   1.000000
   80        5.721573   1.000000
   81        5.787966   1.000000
   82        5.892751   1.000000
   83        5.987543   1.000000
   84        6.023784   1.000000
   85        6.123027   1.000008
   86        6.167845   1.000034
   87        6.204205   1.000096
   88        6.269543   1.000528
   89        6.305142   1.001209
   90        6.348995   1.003028
   91        6.418894   1.010217
   92        6.469966   1.020045
   93        6.568902   1.034988
   94        6.695533   0.890411
   95        6.711040   0.847802
   96        6.784882   0.577135
   97        6.886398   0.179451
   98        6.971958  -0.000422
   99        7.000069  -0.023428
  100        7.082810  -0.031842
  101        7.164977  -0.014092
  102        7.220502  -0.005985
  103        7.342423  -0.000461
  104        7.455811  -0.000020
  105        7.552046  -0.000001
  106        7.719147  -0.000000
  107        7.783589  -0.000000
  108        7.951155  -0.000000
  109        8.037924  -0.000000
  110        8.395399  -0.000000
  111        8.511513  -0.000000
  112        8.658534  -0.000000
  113        8.688784  -0.000000
  114        8.725949  -0.000000
  115        8.851541  -0.000000
  116        8.949251  -0.000000
  117        9.033532  -0.000000
  118        9.135231  -0.000000
  119        9.171705  -0.000000
  120        9.209509  -0.000000
 
  0.2000000E+00 -0.1387779E-16  0.0000000E+00  0.1600000E-01
    1      -47.391079   1.000000
    2      -47.327077   1.000000
    3      -47.246319   1.000000
    4      -47.179421   1.000000
    5      -47.134249   1.000000
    6      -47.015296   1.000000
    7      -24.027329   1.000000
    8      -23.895806   1.000000
    9      -23.706590   1.000000
   10      -23.668322   1.000000
   11      -23.594854   1.000000
   12      -23.494276   1.000000
   13      -23.443287   1.000000
   14      -23.429264   1.000000
   15      -23.414007   1.000000
   16      -23.354830   1.000000
   17      -23.332278   1.000000
   18      -23.312206   1.000000
   19      -23.245529   1.000000
   20      -23.203514   1.000000
   21      -23.183803   1.000000
   22      -22.980721   1.000000
   23      -22.902120   1.000000
   24      -22.837165   1.000000
   25       -0.177156   1.000000
   26        1.087452   1.000000
   27        1.417757   1.000000
   28        2.080139   1.000000
   29        2.332607   1.000000
   30        2.358078   1.000000
   31        2.487223   1.000000
   32        2.620234   1.000000
   33        2.699672   1.000000
   34        2.745588   1.000000
   35        2.899650   1.000000
   36        2.904644   1.000000
   37        2.986069   1.000000
   38        3.055756   1.000000
   39        3.095721   1.000000
   40        3.152309   1.000000
   41        3.236650   1.000000
   42        3.332317   1.000000
   43        3.403154   1.000000
   44        3.481547   1.000000
   45        3.507145   1.000000
   46        3.585370   1.000000
   47        3.691038   1.000000
   48        3.767451   1.000000
   49        3.855302   1.000000
   50        3.905253   1.000000
   51        3.944699   1.000000
   52        4.008134   1.000000
   53        4.058056   1.000000
   54        4.152567   1.000000
   55        4.247657   1.000000
   56        4.292990   1.000000
   57        4.366935   1.000000
   58        4.442388   1.000000
   59        4.475628   1.000000
   60        4.645444   1.000000
   61        4.659448   1.000000
   62        4.737151   1.000000
   63        4.787143   1.000000
   64        4.849770   1.000000
   65        4.911985   1.000000
   66        4.960426   1.000000
   67        5.021036   1.000000
   68        5.055937   1.000000
   69        5.083223   1.000000
   70        5.177306   1.000000
   71        5.194882   1.000000
   72        5.283381   1.000000
   73        5.325957   1.000000
   74        5.376956   1.000000
   75        5.395079   1.000000
   76        5.464092   1.000000
   77        5.575397   1.000000
   78        5.587476   1.000000
   79        5.618274   1.000000
   80        5.648630   1.000000
   81        5.791142   1.000000
   82        5.806300   1.000000
   83        5.894012   1.000000
   84        5.943749   1.000000
   85        6.047104   1.000001
   86        6.079682   1.000002
   87        6.149250   1.000019
   88        6.209664   1.000112
   89        6.274464   1.000595
   90        6.305164   1.001210
   91        6.378343   1.005243
   92        6.428067   1.011698
   93        6.443259   1.014444
   94        6.554982   1.035418
   95        6.590104   1.030654
   96        6.670203   0.947042
   97        6.713985   0.839048
   98        6.811528   0.464777
   99        6.873491   0.221946
  100        6.911615   0.107664
  101        6.974865  -0.003505
  102        7.016592  -0.030755
  103        7.099157  -0.028542
  104        7.176795  -0.011958
  105        7.237497  -0.004419
  106        7.428169  -0.000046
  107        7.474477  -0.000011
  108        7.614939  -0.000000
  109        7.802951  -0.000000
  110        7.962437  -0.000000
  111        8.009374  -0.000000
  112        8.038448  -0.000000
  113        8.156759  -0.000000
  114        8.294389  -0.000000
  115        8.385920  -0.000000
  116        8.480182  -0.000000
  117        8.506887  -0.000000
  118        8.611831  -0.000000
  119        8.692531  -0.000000
  120        8.791352  -0.000000
 
  0.4000000E+00 -0.2775558E-16  0.0000000E+00  0.1600000E-01
    1      -47.383419   1.000000
    2      -47.304753   1.000000
    3      -47.245101   1.000000
    4      -47.209303   1.000000
    5      -47.133552   1.000000
    6      -47.015069   1.000000
    7      -23.929130   1.000000
    8      -23.761032   1.000000
    9      -23.673736   1.000000
   10      -23.645594   1.000000
   11      -23.595921   1.000000
   12      -23.468498   1.000000
   13      -23.451662   1.000000
   14      -23.429488   1.000000
   15      -23.422574   1.000000
   16      -23.379837   1.000000
   17      -23.353822   1.000000
   18      -23.323483   1.000000
   19      -23.248175   1.000000
   20      -23.239949   1.000000
   21      -23.196656   1.000000
   22      -23.168327   1.000000
   23      -22.991721   1.000000
   24      -22.839001   1.000000
   25        0.656601   1.000000
   26        1.500183   1.000000
   27        2.003448   1.000000
   28        2.300030   1.000000
   29        2.364704   1.000000
   30        2.572228   1.000000
   31        2.771521   1.000000
   32        2.831637   1.000000
   33        2.981602   1.000000
   34        3.002336   1.000000
   35        3.183078   1.000000
   36        3.256155   1.000000
   37        3.334997   1.000000
   38        3.368652   1.000000
   39        3.432693   1.000000
   40        3.475501   1.000000
   41        3.548462   1.000000
   42        3.590606   1.000000
   43        3.607909   1.000000
   44        3.675907   1.000000
   45        3.757557   1.000000
   46        3.852798   1.000000
   47        3.917087   1.000000
   48        3.979020   1.000000
   49        4.069837   1.000000
   50        4.171311   1.000000
   51        4.215870   1.000000
   52        4.297922   1.000000
   53        4.331864   1.000000
   54        4.419373   1.000000
   55        4.470241   1.000000
   56        4.490189   1.000000
   57        4.523565   1.000000
   58        4.609573   1.000000
   59        4.675271   1.000000
   60        4.706400   1.000000
   61        4.765835   1.000000
   62        4.809108   1.000000
   63        4.855502   1.000000
   64        4.889840   1.000000
   65        4.991037   1.000000
   66        5.015515   1.000000
   67        5.065324   1.000000
   68        5.139203   1.000000
   69        5.148682   1.000000
   70        5.213430   1.000000
   71        5.263999   1.000000
   72        5.323486   1.000000
   73        5.367440   1.000000
   74        5.419484   1.000000
   75        5.457257   1.000000
   76        5.481660   1.000000
   77        5.553773   1.000000
   78        5.607630   1.000000
   79        5.639096   1.000000
   80        5.677750   1.000000
   81        5.758100   1.000000
   82        5.807562   1.000000
   83        5.900923   1.000000
   84        5.965019   1.000000
   85        5.987363   1.000000
   86        6.020941   1.000000
   87        6.098984   1.000004
   88        6.209188   1.000110
   89        6.228551   1.000186
   90        6.244669   1.000284
   91        6.276464   1.000624
   92        6.313541   1.001454
   93        6.372491   1.004719
   94        6.420926   1.010533
   95        6.445981   1.014972
   96        6.515149   1.030213
   97        6.571745   1.034690
   98        6.597955   1.027637
   99        6.677389   0.932617
  100        6.738987   0.756791
  101        6.771073   0.633998
  102        6.838480   0.353249
  103        6.911333   0.108379
  104        6.967048   0.005187
  105        7.020035  -0.031803
  106        7.064358  -0.034553
  107        7.137822  -0.019733
  108        7.227260  -0.005317
  109        7.277585  -0.002013
  110        7.382606  -0.000164
  111        7.462777  -0.000016
  112        7.522429  -0.000002
  113        7.671115  -0.000000
  114        7.762838  -0.000000
  115        7.901617  -0.000000
  116        7.929657  -0.000000
  117        8.052993  -0.000000
  118        8.206943  -0.000000
  119        8.227696  -0.000000
  120        8.436523  -0.000000
 
  0.0000000E+00  0.2000000E+00  0.1387779E-16  0.1600000E-01
    1      -47.396679   1.000000
    2      -47.335571   1.000000
    3      -47.246895   1.000000
    4      -47.165371   1.000000
    5      -47.134731   1.000000
    6      -47.015578   1.000000
    7      -24.127958   1.000000
    8      -23.903206   1.000000
    9      -23.715171   1.000000
   10      -23.667774   1.000000
   11      -23.583337   1.000000
   12      -23.506815   1.000000
   13      -23.440761   1.000000
   14      -23.429427   1.000000
   15      -23.407218   1.000000
   16      -23.345192   1.000000
   17      -23.318761   1.000000
   18      -23.307614   1.000000
   19      -23.243870   1.000000
   20      -23.201628   1.000000
   21      -23.179927   1.000000
   22      -22.979872   1.000000
   23      -22.838415   1.000000
   24      -22.772712   1.000000
   25       -0.362174   1.000000
   26        0.890406   1.000000
   27        1.228082   1.000000
   28        1.612940   1.000000
   29        2.024663   1.000000
   30        2.236425   1.000000
   31        2.334397   1.000000
   32        2.495553   1.000000
   33        2.549043   1.000000
   34        2.623209   1.000000
   35        2.674189   1.000000
   36        2.724511   1.000000
   37        2.787919   1.000000
   38        2.841570   1.000000
   39        2.888184   1.000000
   40        2.937473   1.000000
   41        3.113096   1.000000
   42        3.162433   1.000000
   43        3.179626   1.000000
   44        3.318772   1.000000
   45        3.455110   1.000000
   46        3.535993   1.000000
   47        3.632355   1.000000
   48        3.665281   1.000000
   49        3.723803   1.000000
   50        3.794060   1.000000
   51        3.848223   1.000000
   52        3.889068   1.000000
   53        3.942514   1.000000
   54        4.046267   1.000000
   55        4.135953   1.000000
   56        4.210864   1.000000
   57        4.298293   1.000000
   58        4.448290   1.000000
   59        4.515923   1.000000
   60        4.589714   1.000000
   61        4.641602   1.000000
   62        4.686475   1.000000
   63        4.786213   1.000000
   64        4.835287   1.000000
   65        4.893609   1.000000
   66        4.923011   1.000000
   67        4.963446   1.000000
   68        4.986202   1.000000
   69        5.056015   1.000000
   70        5.104058   1.000000
   71        5.177065   1.000000
   72        5.186297   1.000000
   73        5.265772   1.000000
   74        5.298150   1.000000
   75        5.398637   1.000000
   76        5.441009   1.000000
   77        5.524006   1.000000
   78        5.654213   1.000000
   79        5.698229   1.000000
   80        5.780454   1.000000
   81        5.809592   1.000000
   82        5.904750   1.000000
   83        5.946495   1.000000
   84        6.007430   1.000000
   85        6.050923   1.000001
   86        6.139987   1.000014
   87        6.161949   1.000028
   88        6.194264   1.000073
   89        6.278298   1.000652
   90        6.305127   1.001209
   91        6.337647   1.002414
   92        6.376728   1.005094
   93        6.437069   1.013282
   94        6.506933   1.028476
   95        6.597991   1.027622
   96        6.630077   1.004978
   97        6.786061   0.572211
   98        6.870198   0.233360
   99        7.045958  -0.035439
  100        7.132913  -0.020837
  101        7.210759  -0.007062
  102        7.295595  -0.001370
  103        7.424153  -0.000051
  104        7.454335  -0.000021
  105        7.618835  -0.000000
  106        7.689284  -0.000000
  107        7.834331  -0.000000
  108        7.882928  -0.000000
  109        8.053740  -0.000000
  110        8.154056  -0.000000
  111        8.205061  -0.000000
  112        8.264800  -0.000000
  113        8.410265  -0.000000
  114        8.610616  -0.000000
  115        8.727608  -0.000000
  116        8.764951  -0.000000
  117        8.900517  -0.000000
  118        8.975643  -0.000000
  119        9.010947  -0.000000
  120        9.070129  -0.000000
 
  0.2000000E+00  0.2000000E+00 -0.4857226E-16  0.1600000E-01
    1      -47.391081   1.000000
    2      -47.327079   1.000000
    3      -47.246504   1.000000
    4      -47.179425   1.000000
    5      -47.134195   1.000000
    6      -47.015159   1.000000
    7      -24.027337   1.000000
    8      -23.896345   1.000000
    9      -23.708817   1.000000
   10      -23.670895   1.000000
   11      -23.594957   1.000000
   12      -23.494221   1.000000
   13      -23.443311   1.000000
   14      -23.429198   1.000000
   15      -23.414037   1.000000
   16      -23.354789   1.000000
   17      -23.332184   1.000000
   18      -23.312189   1.000000
   19      -23.245563   1.000000
   20      -23.203494   1.000000
   21      -23.183776   1.000000
   22      -22.974771   1.000000
   23      -22.902058   1.000000
   24      -22.836752   1.000000
   25       -0.174418   1.000000
   26        1.063409   1.000000
   27        1.419951   1.000000
   28        2.019211   1.000000
   29        2.216622   1.000000
   30        2.382089   1.000000
   31        2.478293   1.000000
   32        2.586628   1.000000
   33        2.661739   1.000000
   34        2.732320   1.000000
   35        2.803644   1.000000
   36        2.934955   1.000000
   37        2.987316   1.000000
   38        3.052742   1.000000
   39        3.073462   1.000000
   40        3.109552   1.000000
   41        3.181190   1.000000
   42        3.341131   1.000000
   43        3.366614   1.000000
   44        3.434690   1.000000
   45        3.566441   1.000000
   46        3.649411   1.000000
   47        3.717879   1.000000
   48        3.775613   1.000000
   49        3.834108   1.000000
   50        3.902107   1.000000
   51        3.934109   1.000000
   52        3.995736   1.000000
   53        4.087825   1.000000
   54        4.160665   1.000000
   55        4.269244   1.000000
   56        4.331534   1.000000
   57        4.404838   1.000000
   58        4.438797   1.000000
   59        4.476654   1.000000
   60        4.621900   1.000000
   61        4.685703   1.000000
   62        4.727728   1.000000
   63        4.809206   1.000000
   64        4.869633   1.000000
   65        4.919975   1.000000
   66        4.968277   1.000000
   67        4.993210   1.000000
   68        4.997473   1.000000
   69        5.075821   1.000000
   70        5.113613   1.000000
   71        5.138063   1.000000
   72        5.175431   1.000000
   73        5.234659   1.000000
   74        5.353372   1.000000
   75        5.439537   1.000000
   76        5.452143   1.000000
   77        5.560024   1.000000
   78        5.590200   1.000000
   79        5.656891   1.000000
   80        5.723863   1.000000
   81        5.752795   1.000000
   82        5.809367   1.000000
   83        5.872422   1.000000
   84        5.945868   1.000000
   85        6.025456   1.000000
   86        6.099892   1.000004
   87        6.145952   1.000017
   88        6.201833   1.000090
   89        6.266914   1.000496
   90        6.298579   1.001044
   91        6.344578   1.002775
   92        6.399256   1.007498
   93        6.459397   1.017727
   94        6.583326   1.032603
   95        6.622339   1.012132
   96        6.665667   0.955486
   97        6.808074   0.479367
   98        6.874039   0.220070
   99        6.909084   0.114164
  100        6.988938  -0.016060
  101        7.033355  -0.034528
  102        7.070996  -0.033744
  103        7.150397  -0.017007
  104        7.227888  -0.005258
  105        7.285568  -0.001701
  106        7.380997  -0.000171
  107        7.466532  -0.000014
  108        7.550373  -0.000001
  109        7.763977  -0.000000
  110        7.822585  -0.000000
  111        7.945611  -0.000000
  112        8.211050  -0.000000
  113        8.376556  -0.000000
  114        8.482517  -0.000000
  115        8.615104  -0.000000
  116        8.722922  -0.000000
  117        8.811976  -0.000000
  118        8.994515  -0.000000
  119        9.017958  -0.000000
  120        9.054672  -0.000000
 
  0.4000000E+00  0.2000000E+00 -0.5551115E-16  0.1600000E-01
    1      -47.383422   1.000000
    2      -47.304758   1.000000
    3      -47.245405   1.000000
    4      -47.209309   1.000000
    5      -47.133461   1.000000
    6      -47.014847   1.000000
    7      -23.929752   1.000000
    8      -23.762223   1.000000
    9      -23.680456   1.000000
   10      -23.645798   1.000000
   11      -23.596208   1.000000
   12      -23.468441   1.000000
   13      -23.451774   1.000000
   14      -23.429315   1.000000
   15      -23.422545   1.000000
   16      -23.379701   1.000000
   17      -23.353748   1.000000
   18      -23.323459   1.000000
   19      -23.248238   1.000000
   20      -23.239903   1.000000
   21      -23.196665   1.000000
   22      -23.168315   1.000000
   23      -22.981731   1.000000
   24      -22.838344   1.000000
   25        0.561831   1.000000
   26        1.485942   1.000000
   27        1.896679   1.000000
   28        2.139957   1.000000
   29        2.282738   1.000000
   30        2.478336   1.000000
   31        2.722171   1.000000
   32        2.950739   1.000000
   33        3.022236   1.000000
   34        3.126396   1.000000
   35        3.198218   1.000000
   36        3.255092   1.000000
   37        3.366446   1.000000
   38        3.402802   1.000000
   39        3.475671   1.000000
   40        3.493211   1.000000
   41        3.559473   1.000000
   42        3.603256   1.000000
   43        3.651317   1.000000
   44        3.669827   1.000000
   45        3.721141   1.000000
   46        3.814565   1.000000
   47        3.858465   1.000000
   48        3.988042   1.000000
   49        4.043044   1.000000
   50        4.113041   1.000000
   51        4.139926   1.000000
   52        4.183520   1.000000
   53        4.274833   1.000000
   54        4.325268   1.000000
   55        4.407502   1.000000
   56        4.434470   1.000000
   57        4.560259   1.000000
   58        4.637244   1.000000
   59        4.668205   1.000000
   60        4.701973   1.000000
   61        4.752320   1.000000
   62        4.800619   1.000000
   63        4.869683   1.000000
   64        4.902992   1.000000
   65        4.960042   1.000000
   66        5.048062   1.000000
   67        5.072779   1.000000
   68        5.127854   1.000000
   69        5.178144   1.000000
   70        5.214776   1.000000
   71        5.266614   1.000000
   72        5.323225   1.000000
   73        5.352351   1.000000
   74        5.393528   1.000000
   75        5.453920   1.000000
   76        5.525537   1.000000
   77        5.583356   1.000000
   78        5.629713   1.000000
   79        5.684080   1.000000
   80        5.722345   1.000000
   81        5.761221   1.000000
   82        5.833559   1.000000
   83        5.873948   1.000000
   84        5.935129   1.000000
   85        5.978409   1.000000
   86        6.027319   1.000000
   87        6.055472   1.000001
   88        6.096836   1.000004
   89        6.142275   1.000015
   90        6.205962   1.000101
   91        6.226386   1.000176
   92        6.293527   1.000930
   93        6.323430   1.001798
   94        6.385348   1.005929
   95        6.423759   1.010985
   96        6.470939   1.020263
   97        6.539606   1.034282
   98        6.608456   1.022178
   99        6.637324   0.997182
  100        6.705066   0.864920
  101        6.731367   0.783294
  102        6.773099   0.625766
  103        6.902732   0.131181
  104        6.991327  -0.017822
  105        7.027075  -0.033493
  106        7.128654  -0.021809
  107        7.243177  -0.003977
  108        7.338986  -0.000502
  109        7.434577  -0.000038
  110        7.478635  -0.000010
  111        7.679720  -0.000000
  112        7.796823  -0.000000
  113        7.921534  -0.000000
  114        8.069080  -0.000000
  115        8.147311  -0.000000
  116        8.254531  -0.000000
  117        8.333353  -0.000000
  118        8.442105  -0.000000
  119        8.476196  -0.000000
  120        8.516268  -0.000000
 
 -0.4000000E+00  0.2000000E+00 -0.3908332E-16  0.1600000E-01
    1      -47.383419   1.000000
    2      -47.304753   1.000000
    3      -47.245096   1.000000
    4      -47.209304   1.000000
    5      -47.133553   1.000000
    6      -47.015073   1.000000
    7      -23.929124   1.000000
    8      -23.761032   1.000000
    9      -23.673673   1.000000
   10      -23.645588   1.000000
   11      -23.595925   1.000000
   12      -23.468518   1.000000
   13      -23.451680   1.000000
   14      -23.429557   1.000000
   15      -23.422567   1.000000
   16      -23.379854   1.000000
   17      -23.353807   1.000000
   18      -23.323447   1.000000
   19      -23.248175   1.000000
   20      -23.239933   1.000000
   21      -23.196602   1.000000
   22      -23.168321   1.000000
   23      -22.991821   1.000000
   24      -22.839023   1.000000
   25        0.912716   1.000000
   26        1.435791   1.000000
   27        1.826063   1.000000
   28        2.211549   1.000000
   29        2.385975   1.000000
   30        2.501138   1.000000
   31        2.638815   1.000000
   32        2.826516   1.000000
   33        2.950716   1.000000
   34        3.115298   1.000000
   35        3.158246   1.000000
   36        3.243718   1.000000
   37        3.259082   1.000000
   38        3.333733   1.000000
   39        3.408213   1.000000
   40        3.465065   1.000000
   41        3.525021   1.000000
   42        3.595307   1.000000
   43        3.657396   1.000000
   44        3.710879   1.000000
   45        3.807522   1.000000
   46        3.849699   1.000000
   47        3.910601   1.000000
   48        4.001998   1.000000
   49        4.083669   1.000000
   50        4.203345   1.000000
   51        4.253664   1.000000
   52        4.313076   1.000000
   53        4.380742   1.000000
   54        4.429217   1.000000
   55        4.472936   1.000000
   56        4.522361   1.000000
   57        4.574439   1.000000
   58        4.646336   1.000000
   59        4.674119   1.000000
   60        4.754689   1.000000
   61        4.767205   1.000000
   62        4.800536   1.000000
   63        4.853333   1.000000
   64        4.934258   1.000000
   65        4.962663   1.000000
   66        5.035027   1.000000
   67        5.047135   1.000000
   68        5.122408   1.000000
   69        5.148195   1.000000
   70        5.178014   1.000000
   71        5.206061   1.000000
   72        5.272885   1.000000
   73        5.327708   1.000000
   74        5.383926   1.000000
   75        5.436312   1.000000
   76        5.513013   1.000000
   77        5.554181   1.000000
   78        5.614895   1.000000
   79        5.696453   1.000000
   80        5.719267   1.000000
   81        5.786706   1.000000
   82        5.845852   1.000000
   83        5.874959   1.000000
   84        5.884663   1.000000
   85        5.989194   1.000000
   86        6.017267   1.000000
   87        6.045540   1.000001
   88        6.107786   1.000005
   89        6.175898   1.000043
   90        6.238922   1.000245
   91        6.294954   1.000961
   92        6.331870   1.002145
   93        6.383395   1.005731
   94        6.443305   1.014452
   95        6.457791   1.017386
   96        6.513781   1.029933
   97        6.566825   1.035158
   98        6.645079   0.987599
   99        6.672088   0.943383
  100        6.741960   0.746137
  101        6.786293   0.571242
  102        6.840186   0.346412
  103        6.919168   0.089227
  104        6.939456   0.046824
  105        6.981657  -0.010041
  106        7.051575  -0.035414
  107        7.144978  -0.018161
  108        7.177719  -0.011801
  109        7.274975  -0.002125
  110        7.331625  -0.000599
  111        7.422169  -0.000054
  112        7.675470  -0.000000
  113        7.694903  -0.000000
  114        7.866653  -0.000000
  115        7.969438  -0.000000
  116        8.090833  -0.000000
  117        8.240833  -0.000000
  118        8.291498  -0.000000
  119        8.346018  -0.000000
  120        8.363345  -0.000000
 
 -0.2000000E+00  0.2000000E+00  0.1006140E-15  0.1600000E-01
    1      -47.391075   1.000000
    2      -47.327072   1.000000
    3      -47.246007   1.000000
    4      -47.179417   1.000000
    5      -47.134342   1.000000
    6      -47.015524   1.000000
    7      -24.027320   1.000000
    8      -23.894940   1.000000
    9      -23.703496   1.000000
   10      -23.663264   1.000000
   11      -23.594644   1.000000
   12      -23.494434   1.000000
   13      -23.443253   1.000000
   14      -23.429363   1.000000
   15      -23.414153   1.000000
   16      -23.354919   1.000000
   17      -23.332382   1.000000
   18      -23.312165   1.000000
   19      -23.245444   1.000000
   20      -23.203509   1.000000
   21      -23.183719   1.000000
   22      -22.990881   1.000000
   23      -22.902195   1.000000
   24      -22.837837   1.000000
   25        0.071934   1.000000
   26        1.131544   1.000000
   27        1.522827   1.000000
   28        1.713796   1.000000
   29        2.161373   1.000000
   30        2.461248   1.000000
   31        2.583157   1.000000
   32        2.687730   1.000000
   33        2.783424   1.000000
   34        2.816618   1.000000
   35        2.845804   1.000000
   36        2.902260   1.000000
   37        2.960399   1.000000
   38        2.993988   1.000000
   39        3.061036   1.000000
   40        3.123096   1.000000
   41        3.229471   1.000000
   42        3.252693   1.000000
   43        3.335330   1.000000
   44        3.395471   1.000000
   45        3.520465   1.000000
   46        3.634685   1.000000
   47        3.752314   1.000000