 running on   32 total cores
 distrk:  each k-point on   32 cores,    1 groups
 distr:  one band on    4 cores,    8 groups
 using from now: INCAR     
 vasp.5.4.4.18Apr17-6-g9f103f2a35 (build Aug 09 2018 16:20:53) complex          
  
 POSCAR found :  5 types and      29 ions
 scaLAPACK will be used

 ----------------------------------------------------------------------------- 
|                                                                             |
|  ADVICE TO THIS USER RUNNING 'VASP/VAMP'   (HEAR YOUR MASTER'S VOICE ...):  |
|                                                                             |
|      You enforced a specific xc-type in the INCAR file,                     |
|      a different type was found on the POTCAR file                          |
|          I HOPE YOU KNOW, WHAT YOU ARE  DOING                               |
|                                                                             |
 ----------------------------------------------------------------------------- 

 LDA part: xc-table for Pade appr. of Perdew
 POSCAR found :  5 types and      29 ions
 POSCAR, INCAR and KPOINTS ok, starting setup
 FFT: planning ...
 WAVECAR not read
 entering main loop
       N       E                     dE             d eps       ncg     rms          rms(c)
DAV:   1     0.216529795214E+04    0.21653E+04   -0.91673E+04 15120   0.176E+03
DAV:   2     0.742598646346E+02   -0.20910E+04   -0.20302E+04 15200   0.522E+02
DAV:   3    -0.300513627333E+03   -0.37477E+03   -0.35764E+03 26320   0.183E+02
DAV:   4    -0.346157959756E+03   -0.45644E+02   -0.42215E+02 23160   0.600E+01
DAV:   5    -0.351407005117E+03   -0.52490E+01   -0.50942E+01 28856   0.221E+01    0.746E+01
DAV:   6    -0.340928532669E+03    0.10478E+02   -0.10212E+02 20552   0.300E+01    0.350E+01
DAV:   7    -0.357956491870E+03   -0.17028E+02   -0.35056E+02 21072   0.764E+01    0.280E+01
DAV:   8    -0.343528081389E+03    0.14428E+02   -0.13472E+02 22744   0.412E+01    0.190E+01
DAV:   9    -0.332220472493E+03    0.11308E+02   -0.21072E+01 20632   0.142E+01    0.115E+01
DAV:  10    -0.330257523239E+03    0.19629E+01   -0.88176E+00 22368   0.852E+00    0.727E+00
DAV:  11    -0.329682137005E+03    0.57539E+00   -0.34418E+00 22408   0.540E+00    0.431E+00
DAV:  12    -0.329559997467E+03    0.12214E+00   -0.15818E+00 21760   0.379E+00    0.259E+00
DAV:  13    -0.329556537873E+03    0.34596E-02   -0.10366E+00 21672   0.310E+00    0.170E+00
DAV:  14    -0.329512537653E+03    0.44000E-01   -0.46631E-01 22088   0.226E+00    0.917E-01
DAV:  15    -0.329509235748E+03    0.33019E-02   -0.20359E-01 23120   0.127E+00    0.722E-01
DAV:  16    -0.329510424023E+03   -0.11883E-02   -0.72057E-02 22880   0.758E-01    0.686E-01
DAV:  17    -0.329505807330E+03    0.46167E-02   -0.26367E-02 21592   0.469E-01    0.377E-01
DAV:  18    -0.329503928854E+03    0.18785E-02   -0.13597E-02 21280   0.363E-01    0.151E-01
DAV:  19    -0.329503791729E+03    0.13712E-03   -0.42361E-03 20864   0.204E-01    0.980E-02
DAV:  20    -0.329503720986E+03    0.70743E-04   -0.10540E-03 18216   0.983E-02    0.711E-02
DAV:  21    -0.329503652937E+03    0.68049E-04   -0.44286E-04 14272   0.762E-02
   1 F= -.32950365E+03 E0= -.32949723E+03  d E =-.329504E+03
 curvature:   0.00 expect dE= 0.000E+00 dE for cont linesearch  0.000E+00
 trial: gam= 0.00000 g(F)=  0.491E+00 g(S)=  0.611E+00 ort = 0.000E+00 (trialstep = 0.100E+01)
 search vector abs. value=  0.110E+01
 bond charge predicted
       N       E                     dE             d eps       ncg     rms          rms(c)
DAV:   1    -0.331984611457E+03   -0.24809E+01   -0.15819E+02 20296   0.571E+01    0.165E+01
DAV:   2    -0.332478524281E+03   -0.49391E+00   -0.39383E+01 23760   0.270E+01    0.112E+01
DAV:   3    -0.330380639441E+03    0.20979E+01   -0.22397E+01 21248   0.139E+01    0.794E+00
DAV:   4    -0.330087354617E+03    0.29328E+00   -0.11770E+01 23168   0.113E+01    0.558E+00
DAV:   5    -0.329676043394E+03    0.41131E+00   -0.50400E+00 22464   0.758E+00    0.328E+00
DAV:   6    -0.329509381122E+03    0.16666E+00   -0.14527E+00 24040   0.374E+00    0.204E+00
DAV:   7    -0.329535169206E+03   -0.25788E-01   -0.63107E-01 24512   0.236E+00    0.173E+00
DAV:   8    -0.329513059722E+03    0.22109E-01   -0.26828E-01 22984   0.170E+00    0.110E+00
DAV:   9    -0.329518369700E+03   -0.53100E-02   -0.84587E-02 22656   0.896E-01    0.708E-01
DAV:  10    -0.329526288457E+03   -0.79188E-02   -0.78099E-02 22936   0.853E-01    0.611E-01
DAV:  11    -0.329526728629E+03   -0.44017E-03   -0.51715E-02 23792   0.654E-01    0.332E-01
DAV:  12    -0.329526460545E+03    0.26808E-03   -0.13744E-02 23120   0.356E-01    0.160E-01
DAV:  13    -0.329526752529E+03   -0.29198E-03   -0.42903E-03 23744   0.184E-01    0.101E-01
DAV:  14    -0.329526788978E+03   -0.36449E-04   -0.18040E-03 20264   0.137E-01    0.645E-02
DAV:  15    -0.329526741415E+03    0.47563E-04   -0.64479E-04 15944   0.856E-02
   2 F= -.32952674E+03 E0= -.32952102E+03  d E =-.230885E-01
 trial-energy change:   -0.023088  1 .order   -0.000695   -1.101294    1.099904
 step:   0.5156(harm=  0.5003)  dis= 0.02008  next Energy=  -329.790614 (dE=-0.287E+00)
 bond charge predicted
       N       E                     dE             d eps       ncg     rms          rms(c)
DAV:   1    -0.330365425760E+03   -0.83864E+00   -0.37679E+01 20176   0.278E+01    0.793E+00
DAV:   2    -0.330514973255E+03   -0.14955E+00   -0.90683E+00 26040   0.127E+01    0.668E+00
DAV:   3    -0.330097070762E+03    0.41790E+00   -0.84257E+00 21904   0.914E+00    0.431E+00
DAV:   4    -0.329930347350E+03    0.16672E+00   -0.22773E+00 24168   0.471E+00    0.264E+00
DAV:   5    -0.329831050907E+03    0.99296E-01   -0.12420E+00 22408   0.363E+00    0.168E+00
DAV:   6    -0.329788522587E+03    0.42528E-01   -0.44501E-01 23480   0.219E+00    0.102E+00
DAV:   7    -0.329794280873E+03   -0.57583E-02   -0.18077E-01 23456   0.125E+00    0.900E-01
DAV:   8    -0.329787708620E+03    0.65723E-02   -0.69315E-02 23280   0.840E-01    0.561E-01
DAV:   9    -0.329788488334E+03   -0.77971E-03   -0.24233E-02 22576   0.480E-01    0.407E-01
DAV:  10    -0.329790281948E+03   -0.17936E-02   -0.23988E-02 22872   0.444E-01    0.338E-01
DAV:  11    -0.329790344296E+03   -0.62347E-04   -0.13687E-02 22864   0.340E-01    0.168E-01
DAV:  12    -0.329790235071E+03    0.10922E-03   -0.39259E-03 23536   0.188E-01    0.867E-02
DAV:  13    -0.329790260017E+03   -0.24946E-04   -0.14805E-03 21416   0.106E-01    0.605E-02
DAV:  14    -0.329790253916E+03    0.61011E-05   -0.55645E-04 15112   0.789E-02
   3 F= -.32979025E+03 E0= -.32978397E+03  d E =-.286601E+00
 curvature:  -0.25 expect dE=-0.145E+00 dE for cont linesearch -0.697E-04
 trial: gam= 0.50961 g(F)=  0.314E+00 g(S)=  0.265E+00 ort = 0.175E-01 (trialstep = 0.903E+00)
 search vector abs. value=  0.883E+00
 bond charge predicted
       N       E                     dE             d eps       ncg     rms          rms(c)
DAV:   1    -0.329823249184E+03   -0.32989E-01   -0.94955E+01 15624   0.328E+01    0.325E+00
DAV:   2    -0.330266265409E+03   -0.44302E+00   -0.61876E+00 23720   0.100E+01    0.293E+00
DAV:   3    -0.330231459364E+03    0.34806E-01   -0.16101E+00 23488   0.399E+00    0.231E+00
DAV:   4    -0.330170967465E+03    0.60492E-01   -0.42406E-01 23568   0.212E+00    0.142E+00
DAV:   5    -0.330158415263E+03    0.12552E-01   -0.13242E-01 22544   0.117E+00    0.103E+00
DAV:   6    -0.330163664508E+03   -0.52492E-02   -0.16172E-01 23512   0.129E+00    0.937E-01
DAV:   7    -0.330147943973E+03    0.15721E-01   -0.83707E-02 24576   0.100E+00    0.386E-01
DAV:   8    -0.330146682007E+03    0.12620E-02   -0.22161E-02 23952   0.466E-01    0.267E-01
DAV:   9    -0.330146447624E+03    0.23438E-03   -0.95426E-03 21776   0.270E-01    0.194E-01
DAV:  10    -0.330146309735E+03    0.13789E-03   -0.23263E-03 20128   0.147E-01    0.125E-01
DAV:  11    -0.330146376856E+03   -0.67120E-04   -0.14475E-03 19656   0.126E-01    0.813E-02
DAV:  12    -0.330146359384E+03    0.17472E-04   -0.14836E-03 18928   0.123E-01    0.583E-02
DAV:  13    -0.330146283692E+03    0.75692E-04   -0.34183E-04 12768   0.752E-02
   4 F= -.33014628E+03 E0= -.33013976E+03  d E =-.356030E+00
 trial-energy change:   -0.356030  1 .order   -0.354807   -0.530743   -0.178872
 step:   1.3484(harm=  1.3622)  dis= 0.07168  next Energy=  -330.190523 (dE=-0.400E+00)
 bond charge predicted
       N       E                     dE             d eps       ncg     rms          rms(c)
DAV:   1    -0.330125012676E+03    0.21347E-01   -0.23077E+01 16336   0.161E+01    0.151E+00
DAV:   2    -0.330219261162E+03   -0.94248E-01   -0.13456E+00 24224   0.475E+00    0.142E+00
DAV:   3    -0.330210022055E+03    0.92391E-02   -0.35721E-01 23920   0.185E+00    0.109E+00
DAV:   4    -0.330197373127E+03    0.12649E-01   -0.94243E-02 22912   0.978E-01    0.689E-01
DAV:   5    -0.330194741196E+03    0.26319E-02   -0.31812E-02 22776   0.563E-01    0.504E-01
DAV:   6    -0.330195752874E+03   -0.10117E-02   -0.38911E-02 23512   0.628E-01    0.441E-01
DAV:   7    -0.330191964971E+03    0.37879E-02   -0.18042E-02 24264   0.476E-01    0.175E-01
DAV:   8    -0.330191776181E+03    0.18879E-03   -0.46879E-03 22088   0.210E-01    0.127E-01
DAV:   9    -0.330191740472E+03    0.35709E-04   -0.22546E-03 19744   0.133E-01    0.930E-02
DAV:  10    -0.330191691629E+03    0.48844E-04   -0.56654E-04 15216   0.807E-02
   5 F= -.33019169E+03 E0= -.33018544E+03  d E =-.401438E+00
 curvature:  -1.02 expect dE=-0.843E-01 dE for cont linesearch -0.350E-04
 trial: gam= 0.05124 g(F)=  0.738E-01 g(S)=  0.872E-02 ort = 0.550E-02 (trialstep = 0.992E+00)
 search vector abs. value=  0.854E-01
 bond charge predicted
       N       E                     dE             d eps       ncg     rms          rms(c)
DAV:   1    -0.330208695837E+03   -0.16955E-01   -0.12327E+01 15376   0.128E+01    0.208E+00
DAV:   2    -0.330258075906E+03   -0.49380E-01   -0.97746E-01 20728   0.380E+00    0.130E+00
DAV:   3    -0.330267386921E+03   -0.93110E-02   -0.43853E-01 23144   0.219E+00    0.127E+00
DAV:   4    -0.330245480923E+03    0.21906E-01   -0.19355E-01 22496   0.140E+00    0.658E-01
DAV:   5    -0.330239838942E+03    0.56420E-02   -0.84620E-02 22688   0.920E-01    0.410E-01
DAV:   6    -0.330237471761E+03    0.23672E-02   -0.30074E-02 23968   0.535E-01    0.227E-01
DAV:   7    -0.330237146157E+03    0.32560E-03   -0.90306E-03 23168   0.305E-01    0.159E-01
DAV:   8    -0.330236910387E+03    0.23577E-03   -0.28984E-03 20312   0.167E-01    0.105E-01
DAV:   9    -0.330236962815E+03   -0.52428E-04   -0.90895E-04 18088   0.894E-02
   6 F= -.33023696E+03 E0= -.33023087E+03  d E =-.452712E-01
 trial-energy change:   -0.045271  1 .order   -0.046309   -0.082116   -0.010502
 step:   1.1540(harm=  1.1377)  dis= 0.01295  next Energy=  -330.237815 (dE=-0.461E-01)
 bond charge predicted
       N       E                     dE             d eps       ncg     rms          rms(c)
DAV:   1    -0.330236805025E+03    0.10536E-03   -0.32893E-01 15584   0.207E+00    0.343E-01
DAV:   2    -0.330238265932E+03   -0.14609E-02   -0.27657E-02 20976   0.654E-01    0.231E-01
DAV:   3    -0.330238324838E+03   -0.58905E-04   -0.13395E-02 22064   0.369E-01    0.205E-01
DAV:   4    -0.330237782631E+03    0.54221E-03   -0.53727E-03 20256   0.237E-01    0.108E-01
DAV:   5    -0.330237640581E+03    0.14205E-03   -0.23030E-03 19440   0.157E-01    0.715E-02
DAV:   6    -0.330237576118E+03    0.64464E-04   -0.78177E-04 16440   0.945E-02
   7 F= -.33023758E+03 E0= -.33023152E+03  d E =-.458845E-01
 curvature:  -0.58 expect dE=-0.620E-01 dE for cont linesearch -0.293E-04
 trial: gam= 1.32681 g(F)=  0.143E-01 g(S)=  0.926E-01 ort =-0.208E-02 (trialstep = 0.347E+00)
 search vector abs. value=  0.252E+00
 bond charge predicted
       N       E                     dE             d eps       ncg     rms          rms(c)
DAV:   1    -0.330260323962E+03   -0.22683E-01   -0.45057E+00 15968   0.783E+00    0.126E+00
DAV:   2    -0.330279422308E+03   -0.19098E-01   -0.42032E-01 22152   0.243E+00    0.932E-01
DAV:   3    -0.330272467692E+03    0.69546E-02   -0.19364E-01 22664   0.143E+00    0.731E-01
DAV:   4    -0.330267588957E+03    0.48787E-02   -0.74573E-02 22960   0.867E-01    0.491E-01
DAV:   5    -0.330264042748E+03    0.35462E-02   -0.41595E-02 22448   0.635E-01    0.259E-01
DAV:   6    -0.330262912788E+03    0.11300E-02   -0.12456E-02 23328   0.339E-01    0.125E-01
DAV:   7    -0.330262993393E+03   -0.80605E-04   -0.40569E-03 22296   0.196E-01    0.112E-01
DAV:   8    -0.330262896182E+03    0.97211E-04   -0.12967E-03 19232   0.116E-01    0.762E-02
DAV:   9    -0.330262906612E+03   -0.10430E-04   -0.21620E-04 11080   0.592E-02
   8 F= -.33026291E+03 E0= -.33025715E+03  d E =-.253305E-01
 trial-energy change:   -0.025330  1 .order   -0.025624   -0.036207   -0.015042
 step:   0.5943(harm=  0.5943)  dis= 0.01467  next Energy=  -330.268545 (dE=-0.310E-01)
 bond charge predicted
       N       E                     dE             d eps       ncg     rms          rms(c)
DAV:   1    -0.330265591159E+03   -0.26950E-02   -0.22742E+00 15864   0.557E+00    0.890E-01
DAV:   2    -0.330274995459E+03   -0.94043E-02   -0.20837E-01 21616   0.172E+00    0.634E-01
DAV:   3    -0.330272162043E+03    0.28334E-02   -0.94008E-02 22440   0.101E+00    0.500E-01
DAV:   4    -0.330269741120E+03    0.24209E-02   -0.36315E-02 22648   0.611E-01    0.334E-01
DAV:   5    -0.330268053609E+03    0.16875E-02   -0.19569E-02 22488   0.437E-01    0.174E-01
DAV:   6    -0.330267601639E+03    0.45197E-03   -0.55506E-03 23344   0.226E-01    0.903E-02
DAV:   7    -0.330267655887E+03   -0.54249E-04   -0.16192E-03 20928   0.125E-01    0.806E-02
DAV:   8    -0.330267627658E+03    0.28230E-04   -0.43623E-04 13280   0.753E-02
   9 F= -.33026763E+03 E0= -.33026208E+03  d E =-.300515E-01
 curvature:  -0.72 expect dE=-0.112E-01 dE for cont linesearch -0.275E-04
 trial: gam= 0.09691 g(F)=  0.152E-01 g(S)=  0.490E-03 ort =-0.310E-02 (trialstep = 0.397E+00)
 search vector abs. value=  0.174E-01
 bond charge predicted
       N       E                     dE             d eps       ncg     rms          rms(c)
DAV:   1    -0.330271981896E+03   -0.43260E-02   -0.37230E-01 16632   0.201E+00    0.193E-01
DAV:   2    -0.330273633041E+03   -0.16511E-02   -0.20624E-02 22696   0.583E-01    0.192E-01
DAV:   3    -0.330273272727E+03    0.36031E-03   -0.63823E-03 22568   0.277E-01    0.120E-01
DAV:   4    -0.330273168751E+03    0.10398E-03   -0.18323E-03 19784   0.142E-01    0.845E-02
DAV:   5    -0.330273105473E+03    0.63279E-04   -0.92625E-04 16936   0.994E-02
  10 F= -.33027311E+03 E0= -.33026756E+03  d E =-.547782E-02
 ZBRENT: can't locate minimum, use default step
 trial-energy change:   -0.005478  1 .order   -0.005509   -0.006096   -0.004921
 step:   1.5872(harm=  2.0592)  dis= 0.01409  next Energy=  -330.283445 (dE=-0.158E-01)
 bond charge predicted
       N       E                     dE             d eps       ncg     rms          rms(c)
DAV:   1    -0.330271398542E+03    0.17702E-02   -0.33338E+00 16608   0.602E+00    0.572E-01
DAV:   2    -0.330286764726E+03   -0.15366E-01   -0.19872E-01 23304   0.179E+00    0.627E-01
DAV:   3    -0.330282137382E+03    0.46273E-02   -0.62692E-02 23344   0.818E-01    0.372E-01
DAV:   4    -0.330281221929E+03    0.91545E-03   -0.14744E-02 23152   0.398E-01    0.267E-01
DAV:   5    -0.330280631022E+03    0.59091E-03   -0.81751E-03 22528   0.279E-01    0.168E-01
DAV:   6    -0.330280419629E+03    0.21139E-03   -0.39071E-03 22544   0.212E-01    0.100E-01
DAV:   7    -0.330280302041E+03    0.11759E-03   -0.18326E-03 20800   0.156E-01    0.681E-02
DAV:   8    -0.330280224838E+03    0.77203E-04   -0.56632E-04 14552   0.860E-02
  11 F= -.33028022E+03 E0= -.33027467E+03  d E =-.125972E-01
 curvature:  -1.07 expect dE=-0.980E-02 dE for cont linesearch -0.515E-07
 trial: gam= 0.54719 g(F)=  0.243E-02 g(S)=  0.670E-02 ort = 0.289E-04 (trialstep = 0.635E+00)
 search vector abs. value=  0.144E-01
 bond charge predicted
       N       E                     dE             d eps       ncg     rms          rms(c)
DAV:   1    -0.330288875447E+03   -0.85734E-02   -0.79291E-01 17280   0.378E+00    0.990E-01
DAV:   2    -0.330288670575E+03    0.20487E-03   -0.11780E-01 24472   0.144E+00    0.600E-01
DAV:   3    -0.330287668678E+03    0.10019E-02   -0.95304E-02 22744   0.954E-01    0.532E-01
DAV:   4    -0.330283804299E+03    0.38644E-02   -0.41867E-02 22960   0.636E-01    0.283E-01
DAV:   5    -0.330282727493E+03    0.10768E-02   -0.16320E-02 22592   0.401E-01    0.198E-01
DAV:   6    -0.330282107251E+03    0.62024E-03   -0.54418E-03 20768   0.233E-01    0.950E-02
DAV:   7    -0.330282140439E+03   -0.33189E-04   -0.12757E-03 20240   0.119E-01    0.753E-02
DAV:   8    -0.330282119419E+03    0.21020E-04   -0.52048E-04 14560   0.815E-02
  12 F= -.33028212E+03 E0= -.33027652E+03  d E =-.189458E-02
 trial-energy change:   -0.001895  1 .order   -0.002048   -0.005806    0.001709
 step:   0.4905(harm=  0.4905)  dis= 0.00316  next Energy=  -330.282467 (dE=-0.224E-02)
 bond charge predicted
       N       E                     dE             d eps       ncg     rms          rms(c)
DAV:   1    -0.330282720117E+03   -0.57968E-03   -0.40685E-02 17160   0.856E-01    0.235E-01
DAV:   2    -0.330282835200E+03   -0.11508E-03   -0.72145E-03 24648   0.339E-01    0.155E-01
DAV:   3    -0.330282731118E+03    0.10408E-03   -0.55998E-03 20168   0.229E-01    0.136E-01
DAV:   4    -0.330282525377E+03    0.20574E-03   -0.23763E-03 20336   0.157E-01    0.746E-02
DAV:   5    -0.330282434318E+03    0.91060E-04   -0.94162E-04 16536   0.108E-01
  13 F= -.33028243E+03 E0= -.33027682E+03  d E =-.220948E-02
 curvature:  -0.39 expect dE=-0.154E-02 dE for cont linesearch -0.252E-04
 trial: gam= 0.54454 g(F)=  0.218E-02 g(S)=  0.182E-02 ort =-0.969E-03 (trialstep = 0.606E+00)
 search vector abs. value=  0.720E-02
 bond charge predicted
       N       E                     dE             d eps       ncg     rms          rms(c)
DAV:   1    -0.330283173485E+03   -0.64811E-03   -0.35612E-01 16472   0.202E+00    0.160E-01
DAV:   2    -0.330284600452E+03   -0.14270E-02   -0.19704E-02 23432   0.616E-01    0.150E-01
DAV:   3    -0.330284459209E+03    0.14124E-03   -0.46950E-03 23808   0.230E-01    0.114E-01
DAV:   4    -0.330284288342E+03    0.17087E-03   -0.14411E-03 19176   0.120E-01    0.667E-02
DAV:   5    -0.330284242544E+03    0.45798E-04   -0.53916E-04 14448   0.819E-02
  14 F= -.33028424E+03 E0= -.33027869E+03  d E =-.180823E-02
 ZBRENT: can't locate minimum, use default step
 trial-energy change:   -0.001808  1 .order   -0.001871   -0.002099   -0.001643
 step:   2.4240(harm=  2.7905)  dis= 0.01163  next Energy=  -330.287266 (dE=-0.483E-02)
 bond charge predicted
       N       E                     dE             d eps       ncg     rms          rms(c)
DAV:   1    -0.330276185732E+03    0.81026E-02   -0.31989E+00 16616   0.607E+00    0.483E-01
DAV:   2    -0.330288589009E+03   -0.12403E-01   -0.17404E-01 23632   0.181E+00    0.458E-01
DAV:   3    -0.330287253870E+03    0.13351E-02   -0.42073E-02 24128   0.666E-01    0.338E-01
DAV:   4    -0.330285785975E+03    0.14679E-02   -0.11983E-02 23112   0.355E-01    0.200E-01
DAV:   5    -0.330285544828E+03    0.24115E-03   -0.59355E-03 22088   0.248E-01    0.162E-01
DAV:   6    -0.330285345922E+03    0.19891E-03   -0.45239E-03 21664   0.211E-01    0.114E-01
DAV:   7    -0.330285170173E+03    0.17575E-03   -0.17993E-03 19712   0.143E-01    0.606E-02
DAV:   8    -0.330285100611E+03    0.69561E-04   -0.53320E-04 14872   0.815E-02
  15 F= -.33028510E+03 E0= -.33027966E+03  d E =-.266629E-02
 curvature:  -2.82 expect dE=-0.938E-02 dE for cont linesearch -0.872E-03
 trial: gam= 0.00000 g(F)=  0.266E-02 g(S)=  0.671E-03 ort =-0.149E-02 (trialstep = 0.970E+00)
 search vector abs. value=  0.333E-02
 bond charge predicted
       N       E                     dE             d eps       ncg     rms          rms(c)
DAV:   1    -0.330286823216E+03   -0.16530E-02   -0.45815E-01 15128   0.254E+00    0.518E-01
DAV:   2    -0.330288230316E+03   -0.14071E-02   -0.49657E-02 22072   0.886E-01    0.329E-01
DAV:   3    -0.330287754238E+03    0.47608E-03   -0.28755E-02 22328   0.537E-01    0.271E-01
DAV:   4    -0.330286780232E+03    0.97401E-03   -0.10137E-02 22288   0.332E-01    0.149E-01
DAV:   5    -0.330286489187E+03    0.29105E-03   -0.48244E-03 21328   0.216E-01    0.992E-02
DAV:   6    -0.330286322060E+03    0.16713E-03   -0.13349E-03 19744   0.117E-01    0.428E-02
DAV:   7    -0.330286329476E+03   -0.74155E-05   -0.21886E-04 10384   0.634E-02
  16 F= -.33028633E+03 E0= -.33028089E+03  d E =-.122886E-02
 trial-energy change:   -0.001229  1 .order   -0.001359   -0.003228    0.000509
 step:   0.8375(harm=  0.8375)  dis= 0.00246  next Energy=  -330.286495 (dE=-0.139E-02)
 bond charge predicted
       N       E                     dE             d eps       ncg     rms          rms(c)
DAV:   1    -0.330286423178E+03   -0.10112E-03   -0.87966E-03 15680   0.355E-01    0.858E-02
DAV:   2    -0.330286508121E+03   -0.84943E-04   -0.16132E-03 21736   0.152E-01    0.742E-02
DAV:   3    -0.330286454454E+03    0.53666E-04   -0.98967E-04 17464   0.998E-02
  17 F= -.33028645E+03 E0= -.33028104E+03  d E =-.135384E-02
 curvature:  -0.42 expect dE=-0.113E-02 dE for cont linesearch -0.193E-05
 trial: gam= 0.84513 g(F)=  0.609E-03 g(S)=  0.208E-02 ort =-0.124E-03 (trialstep = 0.646E+00)
 search vector abs. value=  0.486E-02
 bond charge predicted
       N       E                     dE             d eps       ncg     rms          rms(c)
DAV:   1    -0.330287072652E+03   -0.56453E-03   -0.28403E-01 15240   0.190E+00    0.355E-01
DAV:   2    -0.330288471839E+03   -0.13992E-02   -0.28588E-02 21680   0.665E-01    0.278E-01
DAV:   3    -0.330287831788E+03    0.64005E-03   -0.16704E-02 22736   0.422E-01    0.208E-01
DAV:   4    -0.330287368719E+03    0.46307E-03   -0.56675E-03 20304   0.244E-01    0.131E-01
DAV:   5    -0.330287093656E+03    0.27506E-03   -0.30145E-03 19720   0.176E-01    0.707E-02
DAV:   6    -0.330287020508E+03    0.73148E-04   -0.10222E-03 17896   0.101E-01    0.385E-02
DAV:   7    -0.330287007463E+03    0.13045E-04   -0.25901E-04 11000   0.708E-02
  18 F= -.33028701E+03 E0= -.33028151E+03  d E =-.553008E-03
 trial-energy change:   -0.000553  1 .order   -0.000640   -0.001671    0.000391
 step:   0.5237(harm=  0.5237)  dis= 0.00195  next Energy=  -330.287131 (dE=-0.677E-03)
 bond charge predicted
       N       E                     dE             d eps       ncg     rms          rms(c)
DAV:   1    -0.330287051712E+03   -0.31204E-04   -0.10346E-02 15384   0.360E-01    0.713E-02
DAV:   2    -0.330287093021E+03   -0.41310E-04   -0.11001E-03 18104   0.130E-01    0.536E-02
DAV:   3    -0.330287075220E+03    0.17802E-04   -0.58145E-04 14584   0.913E-02
  19 F= -.33028708E+03 E0= -.33028161E+03  d E =-.620765E-03
 curvature:  -0.49 expect dE=-0.209E-03 dE for cont linesearch -0.584E-07
 trial: gam= 0.11879 g(F)=  0.416E-03 g(S)=  0.933E-05 ort =-0.240E-04 (trialstep = 0.622E+00)
 search vector abs. value=  0.488E-03
 reached required accuracy - stopping structural energy minimisation
 writing wavefunctions
VASP is done!
