<?xml version="1.0" encoding="ISO-8859-1"?>
<modeling>
 <generator>
  <i name="program" type="string">vasp </i>
  <i name="version" type="string">5.4.4.18Apr17-6-g9f103f2a35  </i>
  <i name="subversion" type="string">(build Aug 09 2018 16:20:53) complex            parallel </i>
  <i name="platform" type="string">LinuxIFC </i>
  <i name="date" type="string">2020 04 13 </i>
  <i name="time" type="string">17:28:27 </i>
 </generator>
 <incar>
  <i type="string" name="SYSTEM"> SQS with 1 vacancy for VFE and VRV</i>
  <i type="string" name="PREC">normal</i>
  <i type="int" name="IALGO">    38</i>
  <i type="int" name="ICHARG">     2</i>
  <i type="int" name="IBRION">     2</i>
  <i type="int" name="NSW">    50</i>
  <i type="int" name="ISIF">     3</i>
  <i type="int" name="ISYM">     0</i>
  <i name="ENCUT">    600.00000000</i>
  <i type="string" name="LREAL"> Auto</i>
  <i type="int" name="ISMEAR">     1</i>
  <i name="SIGMA">      0.20000000</i>
  <v type="int" name="KPOINT_BSE">    -1     0     0     0</v>
  <i type="string" name="GGA"> PS</i>
 </incar>
 <structure name="primitive_cell" >
  <crystal>
   <varray name="basis" >
    <v>      -3.19000000      -3.19000000      -3.19000000 </v>
    <v>       1.59500000       1.59500000      -7.97500000 </v>
    <v>       7.97500000      -7.97500000      -1.59500000 </v>
   </varray>
   <i name="volume">    486.92638500 </i>
   <varray name="rec_basis" >
    <v>      -0.13584117      -0.12539185      -0.05224660 </v>
    <v>       0.04179728       0.06269592      -0.10449321 </v>
    <v>       0.06269592      -0.06269592       0.00000000 </v>
   </varray>
  </crystal>
  <varray name="positions" >
   <v>      -0.03333333      -0.06666667       0.40000000 </v>
   <v>       0.30000000      -0.40000000       0.40000000 </v>
   <v>      -0.10000000      -0.20000000       0.20000000 </v>
   <v>       0.06666667       0.13333333       0.20000000 </v>
   <v>       0.46666667      -0.06666667       0.40000000 </v>
   <v>      -0.13333333      -0.26666667      -0.40000000 </v>
   <v>       0.03333333       0.06666667      -0.40000000 </v>
   <v>      -0.36666667       0.26666667       0.40000000 </v>
   <v>       0.40000000      -0.20000000       0.20000000 </v>
   <v>      -0.20000000      -0.40000000       0.40000000 </v>
   <v>      -0.43333333       0.13333333       0.20000000 </v>
   <v>       0.36666667      -0.26666667      -0.40000000 </v>
   <v>       0.13333333       0.26666667       0.40000000 </v>
   <v>      -0.46666667       0.06666667      -0.40000000 </v>
   <v>       0.23333333       0.46666667       0.20000000 </v>
   <v>       0.20000000       0.40000000      -0.40000000 </v>
   <v>       0.00000000       0.00000000       0.00000000 </v>
   <v>      -0.06666667      -0.13333333      -0.20000000 </v>
   <v>      -0.30000000       0.40000000      -0.40000000 </v>
   <v>      -0.26666667       0.46666667       0.20000000 </v>
   <v>       0.33333333      -0.33333333       0.00000000 </v>
   <v>      -0.50000000       0.00000000       0.00000000 </v>
   <v>       0.26666667      -0.46666667      -0.20000000 </v>
   <v>      -0.33333333       0.33333333       0.00000000 </v>
   <v>      -0.40000000       0.20000000      -0.20000000 </v>
   <v>      -0.16666667      -0.33333333       0.00000000 </v>
   <v>      -0.23333333      -0.46666667      -0.20000000 </v>
   <v>       0.16666667       0.33333333       0.00000000 </v>
   <v>       0.10000000       0.20000000      -0.20000000 </v>
  </varray>
 </structure>
 <varray name="primitive_index" >
  <v type="int" >        1 </v>
  <v type="int" >       17 </v>
  <v type="int" >        7 </v>
  <v type="int" >       23 </v>
  <v type="int" >       19 </v>
  <v type="int" >       18 </v>
  <v type="int" >        6 </v>
  <v type="int" >        2 </v>
  <v type="int" >       16 </v>
  <v type="int" >        8 </v>
  <v type="int" >       15 </v>
  <v type="int" >       11 </v>
  <v type="int" >       12 </v>
  <v type="int" >       27 </v>
  <v type="int" >       29 </v>
  <v type="int" >       22 </v>
  <v type="int" >        4 </v>
  <v type="int" >       14 </v>
  <v type="int" >       25 </v>
  <v type="int" >        9 </v>
  <v type="int" >       28 </v>
  <v type="int" >        3 </v>
  <v type="int" >       21 </v>
  <v type="int" >       10 </v>
  <v type="int" >       26 </v>
  <v type="int" >       13 </v>
  <v type="int" >       24 </v>
  <v type="int" >       20 </v>
  <v type="int" >        5 </v>
 </varray>
 <kpoints>
  <generation param="Gamma">
   <v type="int" name="divisions">       5        5        5 </v>
   <v name="usershift">      0.00000000       0.00000000       0.00000000 </v>
   <v name="genvec1">      0.20000000      -0.00000000      -0.00000000 </v>
   <v name="genvec2">      0.00000000       0.20000000       0.00000000 </v>
   <v name="genvec3">      0.00000000       0.00000000       0.20000000 </v>
   <v name="shift">      0.00000000       0.00000000       0.00000000 </v>
  </generation>
  <varray name="kpointlist" >
   <v>       0.00000000       0.00000000       0.00000000 </v>
   <v>       0.20000000      -0.00000000       0.00000000 </v>
   <v>       0.40000000      -0.00000000       0.00000000 </v>
   <v>       0.00000000       0.20000000       0.00000000 </v>
   <v>       0.20000000       0.20000000      -0.00000000 </v>
   <v>       0.40000000       0.20000000      -0.00000000 </v>
   <v>      -0.40000000       0.20000000      -0.00000000 </v>
   <v>      -0.20000000       0.20000000       0.00000000 </v>
   <v>       0.00000000       0.40000000       0.00000000 </v>
   <v>       0.20000000       0.40000000       0.00000000 </v>
   <v>       0.40000000       0.40000000      -0.00000000 </v>
   <v>      -0.40000000       0.40000000       0.00000000 </v>
   <v>      -0.20000000       0.40000000       0.00000000 </v>
   <v>       0.00000000       0.00000000       0.20000000 </v>
   <v>       0.20000000      -0.00000000       0.20000000 </v>
   <v>       0.40000000       0.00000000       0.20000000 </v>
   <v>      -0.40000000       0.00000000       0.20000000 </v>
   <v>      -0.20000000       0.00000000       0.20000000 </v>
   <v>       0.00000000       0.20000000       0.20000000 </v>
   <v>       0.20000000       0.20000000       0.20000000 </v>
   <v>       0.40000000       0.20000000       0.20000000 </v>
   <v>      -0.40000000       0.20000000       0.20000000 </v>
   <v>      -0.20000000       0.20000000       0.20000000 </v>
   <v>       0.00000000       0.40000000       0.20000000 </v>
   <v>       0.20000000       0.40000000       0.20000000 </v>
   <v>       0.40000000       0.40000000       0.20000000 </v>
   <v>      -0.40000000       0.40000000       0.20000000 </v>
   <v>      -0.20000000       0.40000000       0.20000000 </v>
   <v>       0.00000000      -0.40000000       0.20000000 </v>
   <v>       0.20000000      -0.40000000       0.20000000 </v>
   <v>       0.40000000      -0.40000000       0.20000000 </v>
   <v>      -0.40000000      -0.40000000       0.20000000 </v>
   <v>      -0.20000000      -0.40000000       0.20000000 </v>
   <v>       0.00000000      -0.20000000       0.20000000 </v>
   <v>       0.20000000      -0.20000000       0.20000000 </v>
   <v>       0.40000000      -0.20000000       0.20000000 </v>
   <v>      -0.40000000      -0.20000000       0.20000000 </v>
   <v>      -0.20000000      -0.20000000       0.20000000 </v>
   <v>       0.00000000       0.00000000       0.40000000 </v>
   <v>       0.20000000      -0.00000000       0.40000000 </v>
   <v>       0.40000000      -0.00000000       0.40000000 </v>
   <v>      -0.40000000       0.00000000       0.40000000 </v>
   <v>      -0.20000000       0.00000000       0.40000000 </v>
   <v>      -0.00000000       0.20000000       0.40000000 </v>
   <v>       0.20000000       0.20000000       0.40000000 </v>
   <v>       0.40000000       0.20000000       0.40000000 </v>
   <v>      -0.40000000       0.20000000       0.40000000 </v>
   <v>      -0.20000000       0.20000000       0.40000000 </v>
   <v>       0.00000000       0.40000000       0.40000000 </v>
   <v>       0.20000000       0.40000000       0.40000000 </v>
   <v>       0.40000000       0.40000000       0.40000000 </v>
   <v>      -0.40000000       0.40000000       0.40000000 </v>
   <v>      -0.20000000       0.40000000       0.40000000 </v>
   <v>       0.00000000      -0.40000000       0.40000000 </v>
   <v>       0.20000000      -0.40000000       0.40000000 </v>
   <v>       0.40000000      -0.40000000       0.40000000 </v>
   <v>      -0.40000000      -0.40000000       0.40000000 </v>
   <v>      -0.20000000      -0.40000000       0.40000000 </v>
   <v>       0.00000000      -0.20000000       0.40000000 </v>
   <v>       0.20000000      -0.20000000       0.40000000 </v>
   <v>       0.40000000      -0.20000000       0.40000000 </v>
   <v>      -0.40000000      -0.20000000       0.40000000 </v>
   <v>      -0.20000000      -0.20000000       0.40000000 </v>
  </varray>
  <varray name="weights" >
   <v>       0.00800000 </v>
   <v>       0.01600000 </v>
   <v>       0.01600000 </v>
   <v>       0.01600000 </v>
   <v>       0.01600000 </v>
   <v>       0.01600000 </v>
   <v>       0.01600000 </v>
   <v>       0.01600000 </v>
   <v>       0.01600000 </v>
   <v>       0.01600000 </v>
   <v>       0.01600000 </v>
   <v>       0.01600000 </v>
   <v>       0.01600000 </v>
   <v>       0.01600000 </v>
   <v>       0.01600000 </v>
   <v>       0.01600000 </v>
   <v>       0.01600000 </v>
   <v>       0.01600000 </v>
   <v>       0.01600000 </v>
   <v>       0.01600000 </v>
   <v>       0.01600000 </v>
   <v>       0.01600000 </v>
   <v>       0.01600000 </v>
   <v>       0.01600000 </v>
   <v>       0.01600000 </v>
   <v>       0.01600000 </v>
   <v>       0.01600000 </v>
   <v>       0.01600000 </v>
   <v>       0.01600000 </v>
   <v>       0.01600000 </v>
   <v>       0.01600000 </v>
   <v>       0.01600000 </v>
   <v>       0.01600000 </v>
   <v>       0.01600000 </v>
   <v>       0.01600000 </v>
   <v>       0.01600000 </v>
   <v>       0.01600000 </v>
   <v>       0.01600000 </v>
   <v>       0.01600000 </v>
   <v>       0.01600000 </v>
   <v>       0.01600000 </v>
   <v>       0.01600000 </v>
   <v>       0.01600000 </v>
   <v>       0.01600000 </v>
   <v>       0.01600000 </v>
   <v>       0.01600000 </v>
   <v>       0.01600000 </v>
   <v>       0.01600000 </v>
   <v>       0.01600000 </v>
   <v>       0.01600000 </v>
   <v>       0.01600000 </v>
   <v>       0.01600000 </v>
   <v>       0.01600000 </v>
   <v>       0.01600000 </v>
   <v>       0.01600000 </v>
   <v>       0.01600000 </v>
   <v>       0.01600000 </v>
   <v>       0.01600000 </v>
   <v>       0.01600000 </v>
   <v>       0.01600000 </v>
   <v>       0.01600000 </v>
   <v>       0.01600000 </v>
   <v>       0.01600000 </v>
  </varray>
 </kpoints>
 <parameters>
  <separator name="general" >
   <i type="string" name="SYSTEM">SQS with 1 vacancy for VFE and VRV</i>
   <i type="logical" name="LCOMPAT"> F  </i>
  </separator>
  <separator name="electronic" >
   <i type="string" name="PREC">normal</i>
   <i name="ENMAX">    600.00000000</i>
   <i name="ENAUG">    455.65900000</i>
   <i name="EDIFF">      0.00010000</i>
   <i type="int" name="IALGO">    38</i>
   <i type="int" name="IWAVPR">    11</i>
   <i type="int" name="NBANDS">   120</i>
   <i name="NELECT">    199.00000000</i>
   <i type="int" name="TURBO">     0</i>
   <i type="int" name="IRESTART">     0</i>
   <i type="int" name="NREBOOT">     0</i>
   <i type="int" name="NMIN">     0</i>
   <i name="EREF">      0.00000000</i>
   <separator name="electronic smearing" >
    <i type="int" name="ISMEAR">     1</i>
    <i name="SIGMA">      0.20000000</i>
    <i name="KSPACING">      0.50000000</i>
    <i type="logical" name="KGAMMA"> T  </i>
   </separator>
   <separator name="electronic projectors" >
    <i type="logical" name="LREAL"> T  </i>
    <v name="ROPT">     -0.00050000     -0.00050000     -0.00050000     -0.00050000     -0.00050000</v>
    <i type="int" name="LMAXPAW">  -100</i>
    <i type="int" name="LMAXMIX">     2</i>
    <i type="logical" name="NLSPLINE"> F  </i>
   </separator>
   <separator name="electronic startup" >
    <i type="int" name="ISTART">     0</i>
    <i type="int" name="ICHARG">     2</i>
    <i type="int" name="INIWAV">     1</i>
   </separator>
   <separator name="electronic spin" >
    <i type="int" name="ISPIN">     1</i>
    <i type="logical" name="LNONCOLLINEAR"> F  </i>
    <v name="MAGMOM">      1.00000000      1.00000000      1.00000000      1.00000000      1.00000000      1.00000000      1.00000000      1.00000000      1.00000000      1.00000000      1.00000000      1.00000000      1.00000000      1.00000000      1.00000000      1.00000000      1.00000000      1.00000000      1.00000000      1.00000000
      1.00000000      1.00000000      1.00000000      1.00000000      1.00000000      1.00000000      1.00000000      1.00000000      1.00000000</v>
    <i name="NUPDOWN">     -1.00000000</i>
    <i type="logical" name="LSORBIT"> F  </i>
    <v name="SAXIS">      0.00000000      0.00000000      1.00000000</v>
    <i type="logical" name="LSPIRAL"> F  </i>
    <v name="QSPIRAL">      0.00000000      0.00000000      0.00000000</v>
    <i type="logical" name="LZEROZ"> F  </i>
   </separator>
   <separator name="electronic exchange-correlation" >
    <i type="logical" name="LASPH"> F  </i>
    <i type="logical" name="LMETAGGA"> F  </i>
   </separator>
   <separator name="electronic convergence" >
    <i type="int" name="NELM">    60</i>
    <i type="int" name="NELMDL">    -5</i>
    <i type="int" name="NELMIN">     2</i>
    <i name="ENINI">    600.00000000</i>
    <separator name="electronic convergence detail" >
     <i type="logical" name="LDIAG"> T  </i>
     <i type="logical" name="LSUBROT"> F  </i>
     <i name="WEIMIN">      0.00100000</i>
     <i name="EBREAK">      0.00000021</i>
     <i name="DEPER">      0.30000000</i>
     <i type="int" name="NRMM">     4</i>
     <i name="TIME">      0.40000000</i>
    </separator>
   </separator>
   <separator name="electronic mixer" >
    <i name="AMIX">      0.40000000</i>
    <i name="BMIX">      1.00000000</i>
    <i name="AMIN">      0.10000000</i>
    <i name="AMIX_MAG">      1.60000000</i>
    <i name="BMIX_MAG">      1.00000000</i>
    <separator name="electronic mixer details" >
     <i type="int" name="IMIX">     4</i>
     <i type="logical" name="MIXFIRST"> F  </i>
     <i type="int" name="MAXMIX">   -45</i>
     <i name="WC">    100.00000000</i>
     <i type="int" name="INIMIX">     1</i>
     <i type="int" name="MIXPRE">     1</i>
     <i type="int" name="MREMOVE">     5</i>
    </separator>
   </separator>
   <separator name="electronic dipolcorrection" >
    <i type="logical" name="LDIPOL"> F  </i>
    <i type="logical" name="LMONO"> F  </i>
    <i type="int" name="IDIPOL">     0</i>
    <i name="EPSILON">      1.00000000</i>
    <v name="DIPOL">   -100.00000000   -100.00000000   -100.00000000</v>
    <i name="EFIELD">      0.00000000</i>
   </separator>
  </separator>
  <separator name="grids" >
   <i type="int" name="NGX">    36</i>
   <i type="int" name="NGY">    50</i>
   <i type="int" name="NGZ">    70</i>
   <i type="int" name="NGXF">    72</i>
   <i type="int" name="NGYF">   100</i>
   <i type="int" name="NGZF">   140</i>
   <i type="logical" name="ADDGRID"> F  </i>
  </separator>
  <separator name="ionic" >
   <i type="int" name="NSW">    50</i>
   <i type="int" name="IBRION">     2</i>
   <i type="int" name="MDALGO">     0</i>
   <i type="int" name="ISIF">     3</i>
   <i name="PSTRESS">      0.00000000</i>
   <i name="EDIFFG">      0.00100000</i>
   <i type="int" name="NFREE">     1</i>
   <i name="POTIM">      0.50000000</i>
   <i name="SMASS">     -3.00000000</i>
   <i name="SCALEE">      1.00000000</i>
  </separator>
  <separator name="ionic md" >
   <i name="TEBEG">      0.00010000</i>
   <i name="TEEND">      0.00010000</i>
   <i type="int" name="NBLOCK">     1</i>
   <i type="int" name="KBLOCK">    50</i>
   <i type="int" name="NPACO">   256</i>
   <i name="APACO">     16.00000000</i>
  </separator>
  <separator name="symmetry" >
   <i type="int" name="ISYM">     0</i>
   <i name="SYMPREC">      0.00001000</i>
  </separator>
  <separator name="dos" >
   <i type="int" name="LORBIT">     0</i>
   <v name="RWIGS">     -1.00000000     -1.00000000     -1.00000000     -1.00000000     -1.00000000</v>
   <i type="int" name="NEDOS">   301</i>
   <i name="EMIN">     10.00000000</i>
   <i name="EMAX">    -10.00000000</i>
   <i name="EFERMI">      0.00000000</i>
  </separator>
  <separator name="writing" >
   <i type="int" name="NWRITE">     2</i>
   <i type="logical" name="LWAVE"> T  </i>
   <i type="logical" name="LDOWNSAMPLE"> F  </i>
   <i type="logical" name="LCHARG"> T  </i>
   <i type="logical" name="LPARD"> F  </i>
   <i type="logical" name="LVTOT"> F  </i>
   <i type="logical" name="LVHAR"> F  </i>
   <i type="logical" name="LELF"> F  </i>
   <i type="logical" name="LOPTICS"> F  </i>
   <v name="STM">      0.00000000      0.00000000      0.00000000      0.00000000      0.00000000      0.00000000      0.00000000</v>
  </separator>
  <separator name="performance" >
   <i type="int" name="NPAR">     8</i>
   <i type="int" name="NSIM">     4</i>
   <i type="int" name="NBLK">    -1</i>
   <i type="logical" name="LPLANE"> T  </i>
   <i type="logical" name="LSCALAPACK"> T  </i>
   <i type="logical" name="LSCAAWARE"> F  </i>
   <i type="logical" name="LSCALU"> F  </i>
   <i type="logical" name="LASYNC"> F  </i>
   <i type="logical" name="LORBITALREAL"> F  </i>
  </separator>
  <separator name="miscellaneous" >
   <i type="int" name="IDIOT">     3</i>
   <i type="int" name="ISPECIAL">     0</i>
   <i type="logical" name="LMUSIC"> F  </i>
   <v name="POMASS">     92.91000000     95.94000000    180.94800000     47.88000000    183.85000000</v>
   <v name="DARWINR">      0.00000000      0.00000000      0.00000000      0.00000000      0.00000000</v>
   <v name="DARWINV">      1.00000000      1.00000000      1.00000000      1.00000000      1.00000000</v>
   <i type="logical" name="LCORR"> T  </i>
  </separator>
  <i type="logical" name="GGA_COMPAT"> T  </i>
  <i type="logical" name="LBERRY"> F  </i>
  <i type="int" name="ICORELEVEL">     0</i>
  <i type="logical" name="LDAU"> F  </i>
  <i type="int" name="I_CONSTRAINED_M">     0</i>
  <separator name="electronic exchange-correlation" >
   <i type="string" name="GGA">PS</i>
   <i type="int" name="VOSKOWN">     0</i>
   <i type="logical" name="LHFCALC"> F  </i>
   <i type="string" name="PRECFOCK"></i>
   <i type="logical" name="LSYMGRAD"> F  </i>
   <i type="logical" name="LHFONE"> F  </i>
   <i type="logical" name="LRHFCALC"> F  </i>
   <i type="logical" name="LTHOMAS"> F  </i>
   <i type="logical" name="LMODELHF"> F  </i>
   <i name="ENCUT4O">     -1.00000000</i>
   <i type="int" name="EXXOEP">     0</i>
   <i type="int" name="FOURORBIT">     0</i>
   <i name="AEXX">      0.00000000</i>
   <i name="HFALPHA">      0.00000000</i>
   <i name="MCALPHA">      0.00000000</i>
   <i name="ALDAX">      1.00000000</i>
   <i name="AGGAX">      1.00000000</i>
   <i name="ALDAC">      1.00000000</i>
   <i name="AGGAC">      1.00000000</i>
   <i type="int" name="NKREDX">     1</i>
   <i type="int" name="NKREDY">     1</i>
   <i type="int" name="NKREDZ">     1</i>
   <i type="logical" name="SHIFTRED"> F  </i>
   <i type="logical" name="ODDONLY"> F  </i>
   <i type="logical" name="EVENONLY"> F  </i>
   <i type="int" name="LMAXFOCK">     0</i>
   <i type="int" name="NMAXFOCKAE">     0</i>
   <i type="logical" name="LFOCKAEDFT"> F  </i>
   <i name="HFSCREEN">      0.00000000</i>
   <i name="HFSCREENC">      0.00000000</i>
   <i type="int" name="NBANDSGWLOW">     0</i>
  </separator>
  <separator name="vdW DFT" >
   <i type="logical" name="LUSE_VDW"> F  </i>
   <i name="Zab_VDW">     -0.84910000</i>
   <i name="PARAM1">      0.12340000</i>
   <i name="PARAM2">      1.00000000</i>
   <i name="PARAM3">      0.00000000</i>
  </separator>
  <separator name="model GW" >
   <i type="int" name="MODEL_GW">     0</i>
   <i name="MODEL_EPS0">     10.07433900</i>
   <i name="MODEL_ALPHA">      1.00000000</i>
  </separator>
  <separator name="linear response parameters" >
   <i type="logical" name="LEPSILON"> F  </i>
   <i type="logical" name="LRPA"> F  </i>
   <i type="logical" name="LNABLA"> F  </i>
   <i type="logical" name="LVEL"> F  </i>
   <i type="int" name="KINTER">     0</i>
   <i name="CSHIFT">      0.10000000</i>
   <i name="OMEGAMAX">     -1.00000000</i>
   <i name="DEG_THRESHOLD">      0.00200000</i>
   <i name="RTIME">     -0.10000000</i>
   <i name="WPLASMAI">      0.00000000</i>
   <v name="DFIELD">      0.00000000      0.00000000      0.00000000</v>
   <v name="WPLASMA">      0.00000000      0.00000000      0.00000000      0.00000000      0.00000000      0.00000000      0.00000000      0.00000000      0.00000000</v>
  </separator>
  <separator name="orbital magnetization" >
   <i type="logical" name="NUCIND"> F  </i>
   <v name="MAGPOS">      0.00000000      0.00000000      0.00000000</v>
   <i type="logical" name="LNICSALL"> T  </i>
   <i type="logical" name="ORBITALMAG"> F  </i>
   <i type="logical" name="LMAGBLOCH"> F  </i>
   <i type="logical" name="LCHIMAG"> F  </i>
   <i type="logical" name="LGAUGE"> T  </i>
   <i type="int" name="MAGATOM">     0</i>
   <v name="MAGDIPOL">      0.00000000      0.00000000      0.00000000</v>
   <v name="AVECCONST">      0.00000000      0.00000000      0.00000000</v>
  </separator>
  <separator name="response functions" >
   <i type="logical" name="LADDER"> F  </i>
   <i type="logical" name="LRPAFORCE"> F  </i>
   <i type="logical" name="LFXC"> F  </i>
   <i type="logical" name="LHARTREE"> T  </i>
   <i type="int" name="IBSE">     0</i>
   <v type="int" name="KPOINT">    -1     0     0     0</v>
   <i type="logical" name="LTCTE"> F  </i>
   <i type="logical" name="LTETE"> F  </i>
   <i type="logical" name="LTRIPLET"> F  </i>
   <i type="logical" name="LFXCEPS"> F  </i>
   <i type="logical" name="LFXHEG"> F  </i>
   <i type="int" name="NATURALO">     2</i>
   <i type="logical" name="L2ORDER"> F  </i>
   <i type="logical" name="LMP2LT"> F  </i>
   <i type="logical" name="LUSEW"> F  </i>
   <i name="ENCUTGW">     -2.00000000</i>
   <i name="ENCUTGWSOFT">     -2.00000000</i>
   <i name="ENCUTLF">     -1.00000000</i>
   <i type="int" name="LMAXMP2">    -1</i>
   <i name="SCISSOR">      0.00000000</i>
   <i type="int" name="NOMEGA">     0</i>
   <i type="int" name="NOMEGAR">     0</i>
   <i type="int" name="NBANDSGW">    -1</i>
   <i type="int" name="NBANDSO">    -1</i>
   <i type="int" name="NBANDSV">    -1</i>
   <i type="int" name="NELM">     1</i>
   <i type="int" name="NELMHF">     1</i>
   <i type="int" name="DIM">     3</i>
   <i type="int" name="ANTIRES">     0</i>
   <i name="OMEGAMAX">    -30.00000000</i>
   <i name="OMEGAMIN">    -30.00000000</i>
   <i name="OMEGATL">   -200.00000000</i>
   <i type="int" name="OMEGAGRID">   140</i>
   <i name="CSHIFT">     -0.10000000</i>
   <i type="logical" name="SELFENERGY"> F  </i>
   <i type="logical" name="LSPECTRAL"> F  </i>
   <i type="logical" name="LSPECTRALGW"> F  </i>
   <i type="logical" name="LSINGLES"> F  </i>
   <i type="logical" name="LFERMIGW"> F  </i>
   <i type="logical" name="ODDONLYGW"> F  </i>
   <i type="logical" name="EVENONLYGW"> F  </i>
   <i type="int" name="NKREDLFX">     1</i>
   <i type="int" name="NKREDLFY">     1</i>
   <i type="int" name="NKREDLFZ">     1</i>
   <i type="int" name="MAXMEM">  2800</i>
   <i type="int" name="TELESCOPE">     0</i>
   <i type="int" name="TAUPAR">     1</i>
   <i type="int" name="OMEGAPAR">    -1</i>
   <i name="LAMBDA">      1.00000000</i>
  </separator>
  <separator name="External order field" >
   <i name="OFIELD_KAPPA">      0.00000000</i>
   <v name="OFIELD_K">      0.00000000      0.00000000      0.00000000</v>
   <i name="OFIELD_Q6_NEAR">      0.00000000</i>
   <i name="OFIELD_Q6_FAR">      0.00000000</i>
   <i name="OFIELD_A">      0.00000000</i>
  </separator>
  <separator name="solvation model" >
   <i type="logical" name="LSOL"> F  </i>
  </separator>
 </parameters>
 <atominfo>
  <atoms>      29 </atoms>
  <types>       5 </types>
  <array name="atoms" >
   <dimension dim="1">ion</dimension>
   <field type="string">element</field>
   <field type="int">atomtype</field>
   <set>
    <rc><c>Nb</c><c>   1</c></rc>
    <rc><c>Nb</c><c>   1</c></rc>
    <rc><c>Nb</c><c>   1</c></rc>
    <rc><c>Nb</c><c>   1</c></rc>
    <rc><c>Nb</c><c>   1</c></rc>
    <rc><c>Nb</c><c>   1</c></rc>
    <rc><c>Mo</c><c>   2</c></rc>
    <rc><c>Mo</c><c>   2</c></rc>
    <rc><c>Mo</c><c>   2</c></rc>
    <rc><c>Mo</c><c>   2</c></rc>
    <rc><c>Mo</c><c>   2</c></rc>
    <rc><c>Mo</c><c>   2</c></rc>
    <rc><c>Ta</c><c>   3</c></rc>
    <rc><c>Ta</c><c>   3</c></rc>
    <rc><c>Ta</c><c>   3</c></rc>
    <rc><c>Ta</c><c>   3</c></rc>
    <rc><c>Ta</c><c>   3</c></rc>
    <rc><c>Ti</c><c>   4</c></rc>
    <rc><c>Ti</c><c>   4</c></rc>
    <rc><c>Ti</c><c>   4</c></rc>
    <rc><c>Ti</c><c>   4</c></rc>
    <rc><c>Ti</c><c>   4</c></rc>
    <rc><c>Ti</c><c>   4</c></rc>
    <rc><c>W </c><c>   5</c></rc>
    <rc><c>W </c><c>   5</c></rc>
    <rc><c>W </c><c>   5</c></rc>
    <rc><c>W </c><c>   5</c></rc>
    <rc><c>W </c><c>   5</c></rc>
    <rc><c>W </c><c>   5</c></rc>
   </set>
  </array>
  <array name="atomtypes" >
   <dimension dim="1">type</dimension>
   <field type="int">atomspertype</field>
   <field type="string">element</field>
   <field>mass</field>
   <field>valence</field>
   <field type="string">pseudopotential</field>
   <set>
    <rc><c>   6</c><c>Nb</c><c>     92.91000000</c><c>     13.00000000</c><c>  PAW_PBE Nb_sv 25May2007               </c></rc>
    <rc><c>   6</c><c>Mo</c><c>     95.94000000</c><c>      6.00000000</c><c>  PAW_PBE Mo 08Apr2002                  </c></rc>
    <rc><c>   5</c><c>Ta</c><c>    180.94800000</c><c>      5.00000000</c><c>  PAW_PBE Ta 17Jan2003                  </c></rc>
    <rc><c>   6</c><c>Ti</c><c>     47.88000000</c><c>      4.00000000</c><c>  PAW_PBE Ti 08Apr2002                  </c></rc>
    <rc><c>   6</c><c>W </c><c>    183.85000000</c><c>      6.00000000</c><c>  PAW_PBE W 08Apr2002                   </c></rc>
   </set>
  </array>
 </atominfo>
 <structure name="initialpos" >
  <crystal>
   <varray name="basis" >
    <v>      -3.19000000      -3.19000000      -3.19000000 </v>
    <v>       1.59500000       1.59500000      -7.97500000 </v>
    <v>       7.97500000      -7.97500000      -1.59500000 </v>
   </varray>
   <i name="volume">    486.92638500 </i>
   <varray name="rec_basis" >
    <v>      -0.13584117      -0.12539185      -0.05224660 </v>
    <v>       0.04179728       0.06269592      -0.10449321 </v>
    <v>       0.06269592      -0.06269592       0.00000000 </v>
   </varray>
  </crystal>
  <varray name="positions" >
   <v>       0.96666667       0.93333333       0.40000000 </v>
   <v>       0.63333333       0.26666667       0.40000000 </v>
   <v>       0.50000000       0.00000000       0.00000000 </v>
   <v>       0.00000000       0.00000000       0.00000000 </v>
   <v>       0.10000000       0.20000000       0.80000000 </v>
   <v>       0.03333333       0.06666667       0.60000000 </v>
   <v>       0.90000000       0.80000000       0.20000000 </v>
   <v>       0.80000000       0.60000000       0.40000000 </v>
   <v>       0.73333333       0.46666667       0.20000000 </v>
   <v>       0.66666667       0.33333333       0.00000000 </v>
   <v>       0.36666667       0.73333333       0.60000000 </v>
   <v>       0.13333333       0.26666667       0.40000000 </v>
   <v>       0.83333333       0.66666667       0.00000000 </v>
   <v>       0.93333333       0.86666667       0.80000000 </v>
   <v>       0.56666667       0.13333333       0.20000000 </v>
   <v>       0.40000000       0.80000000       0.20000000 </v>
   <v>       0.30000000       0.60000000       0.40000000 </v>
   <v>       0.86666667       0.73333333       0.60000000 </v>
   <v>       0.46666667       0.93333333       0.40000000 </v>
   <v>       0.16666667       0.33333333       0.00000000 </v>
   <v>       0.26666667       0.53333333       0.80000000 </v>
   <v>       0.20000000       0.40000000       0.60000000 </v>
   <v>       0.06666667       0.13333333       0.20000000 </v>
   <v>       0.76666667       0.53333333       0.80000000 </v>
   <v>       0.70000000       0.40000000       0.60000000 </v>
   <v>       0.60000000       0.20000000       0.80000000 </v>
   <v>       0.53333333       0.06666667       0.60000000 </v>
   <v>       0.33333333       0.66666667       0.00000000 </v>
   <v>       0.23333333       0.46666667       0.20000000 </v>
  </varray>
 </structure>
 <calculation>
  <scstep>
   <time name="dav">   18.43   18.67</time>
   <time name="total">   18.48   18.73</time>
   <energy>
    <i name="alphaZ">   1302.23520220 </i>
    <i name="ewald"> -11656.37808849 </i>
    <i name="hartreedc">  -3112.82186946 </i>
    <i name="XCdc">   -839.07116132 </i>
    <i name="pawpsdc">  12115.92678409 </i>
    <i name="pawaedc"> -10625.29399854 </i>
    <i name="eentropy">     -0.00416918 </i>
    <i name="bandstr">   1900.44797337 </i>
    <i name="atom">  13080.25727947 </i>
    <i name="e_fr_energy">   2165.29795214 </i>
    <i name="e_wo_entrp">   2165.30212131 </i>
    <i name="e_0_energy">   2165.29934186 </i>
   </energy>
  </scstep>
  <scstep>
   <time name="dav">   18.59   18.62</time>
   <time name="total">   18.60   18.62</time>
   <energy>
    <i name="e_fr_energy">     74.25986463 </i>
    <i name="e_wo_entrp">     74.26255642 </i>
    <i name="e_0_energy">     74.26076189 </i>
   </energy>
  </scstep>
  <scstep>
   <time name="dav">   28.96   29.00</time>
   <time name="total">   28.96   29.01</time>
   <energy>
    <i name="e_fr_energy">   -300.51362733 </i>
    <i name="e_wo_entrp">   -300.50691617 </i>
    <i name="e_0_energy">   -300.51139028 </i>
   </energy>
  </scstep>
  <scstep>
   <time name="dav">   25.83   25.86</time>
   <time name="total">   25.83   25.87</time>
   <energy>
    <i name="e_fr_energy">   -346.15795976 </i>
    <i name="e_wo_entrp">   -346.14725951 </i>
    <i name="e_0_energy">   -346.15439301 </i>
   </energy>
  </scstep>
  <scstep>
   <time name="dav">   31.17   31.23</time>
   <time name="total">   31.76   31.82</time>
   <energy>
    <i name="e_fr_energy">   -351.40700512 </i>
    <i name="e_wo_entrp">   -351.40163925 </i>
    <i name="e_0_energy">   -351.40521649 </i>
   </energy>
  </scstep>
  <scstep>
   <time name="dav">   23.66   23.69</time>
   <time name="total">   24.29   24.33</time>
   <energy>
    <i name="e_fr_energy">   -340.92853267 </i>
    <i name="e_wo_entrp">   -340.92020267 </i>
    <i name="e_0_energy">   -340.92575600 </i>
   </energy>
  </scstep>
  <scstep>
   <time name="dav">   23.90   23.98</time>
   <time name="total">   24.51   24.60</time>
   <energy>
    <i name="e_fr_energy">   -357.95649187 </i>
    <i name="e_wo_entrp">   -357.95128957 </i>
    <i name="e_0_energy">   -357.95475777 </i>
   </energy>
  </scstep>
  <scstep>
   <time name="dav">   25.51   25.55</time>
   <time name="total">   26.14   26.17</time>
   <energy>
    <i name="e_fr_energy">   -343.52808139 </i>
    <i name="e_wo_entrp">   -343.52203697 </i>
    <i name="e_0_energy">   -343.52606658 </i>
   </energy>
  </scstep>
  <scstep>
   <time name="dav">   23.57   23.62</time>
   <time name="total">   24.20   24.25</time>
   <energy>
    <i name="e_fr_energy">   -332.22047249 </i>
    <i name="e_wo_entrp">   -332.21000492 </i>
    <i name="e_0_energy">   -332.21698330 </i>
   </energy>
  </scstep>
  <scstep>
   <time name="dav">   25.15   25.19</time>
   <time name="total">   25.76   25.81</time>
   <energy>
    <i name="e_fr_energy">   -330.25752324 </i>
    <i name="e_wo_entrp">   -330.24600376 </i>
    <i name="e_0_energy">   -330.25368341 </i>
   </energy>
  </scstep>
  <scstep>
   <time name="dav">   25.25   25.29</time>
   <time name="total">   25.87   25.92</time>
   <energy>
    <i name="e_fr_energy">   -329.68213701 </i>
    <i name="e_wo_entrp">   -329.66587578 </i>
    <i name="e_0_energy">   -329.67671660 </i>
   </energy>
  </scstep>
  <scstep>
   <time name="dav">   24.60   24.64</time>
   <time name="total">   25.21   25.26</time>
   <energy>
    <i name="e_fr_energy">   -329.55999747 </i>
    <i name="e_wo_entrp">   -329.54186215 </i>
    <i name="e_0_energy">   -329.55395236 </i>
   </energy>
  </scstep>
  <scstep>
   <time name="dav">   24.56   24.62</time>
   <time name="total">   25.18   25.24</time>
   <energy>
    <i name="e_fr_energy">   -329.55653787 </i>
    <i name="e_wo_entrp">   -329.53790018 </i>
    <i name="e_0_energy">   -329.55032531 </i>
   </energy>
  </scstep>
  <scstep>
   <time name="dav">   24.93   24.98</time>
   <time name="total">   25.55   25.59</time>
   <energy>
    <i name="e_fr_energy">   -329.51253765 </i>
    <i name="e_wo_entrp">   -329.49294187 </i>
    <i name="e_0_energy">   -329.50600572 </i>
   </energy>
  </scstep>
  <scstep>
   <time name="dav">   25.88   25.92</time>
   <time name="total">   26.50   26.55</time>
   <energy>
    <i name="e_fr_energy">   -329.50923575 </i>
    <i name="e_wo_entrp">   -329.49018687 </i>
    <i name="e_0_energy">   -329.50288612 </i>
   </energy>
  </scstep>
  <scstep>
   <time name="dav">   25.72   25.77</time>
   <time name="total">   26.34   26.39</time>
   <energy>
    <i name="e_fr_energy">   -329.51042402 </i>
    <i name="e_wo_entrp">   -329.49085155 </i>
    <i name="e_0_energy">   -329.50389986 </i>
   </energy>
  </scstep>
  <scstep>
   <time name="dav">   24.49   24.54</time>
   <time name="total">   25.12   25.17</time>
   <energy>
    <i name="e_fr_energy">   -329.50580733 </i>
    <i name="e_wo_entrp">   -329.48643385 </i>
    <i name="e_0_energy">   -329.49934950 </i>
   </energy>
  </scstep>
  <scstep>
   <time name="dav">   24.24   24.32</time>
   <time name="total">   24.86   24.95</time>
   <energy>
    <i name="e_fr_energy">   -329.50392885 </i>
    <i name="e_wo_entrp">   -329.48464644 </i>
    <i name="e_0_energy">   -329.49750138 </i>
   </energy>
  </scstep>
  <scstep>
   <time name="dav">   24.00   24.02</time>
   <time name="total">   24.62   24.64</time>
   <energy>
    <i name="e_fr_energy">   -329.50379173 </i>
    <i name="e_wo_entrp">   -329.48447591 </i>
    <i name="e_0_energy">   -329.49735312 </i>
   </energy>
  </scstep>
  <scstep>
   <time name="dav">   21.43   21.47</time>
   <time name="total">   22.04   22.11</time>
   <energy>
    <i name="e_fr_energy">   -329.50372099 </i>
    <i name="e_wo_entrp">   -329.48442766 </i>
    <i name="e_0_energy">   -329.49728988 </i>
   </energy>
  </scstep>
  <scstep>
   <time name="dav">   17.79   17.82</time>
   <time name="total">   17.83   17.86</time>
   <energy>
    <i name="alphaZ">   1302.23520220 </i>
    <i name="ewald"> -11656.37808849 </i>
    <i name="hartreedc">  -2964.26517270 </i>
    <i name="XCdc">   -833.64249018 </i>
    <i name="pawpsdc">  20598.25777116 </i>
    <i name="pawaedc"> -19108.48226817 </i>
    <i name="eentropy">     -0.01928122 </i>
    <i name="bandstr">   -747.46660500 </i>
    <i name="atom">  13080.25727947 </i>
    <i name="e_fr_energy">   -329.50365294 </i>
    <i name="e_wo_entrp">   -329.48437171 </i>
    <i name="e_0_energy">   -329.49722586 </i>
   </energy>
  </scstep>
  <structure>
   <crystal>
    <varray name="basis" >
     <v>      -3.19000000      -3.19000000      -3.19000000 </v>
     <v>       1.59500000       1.59500000      -7.97500000 </v>
     <v>       7.97500000      -7.97500000      -1.59500000 </v>
    </varray>
    <i name="volume">    486.92638500 </i>
    <varray name="rec_basis" >
     <v>      -0.13584117      -0.12539185      -0.05224660 </v>
     <v>       0.04179728       0.06269592      -0.10449321 </v>
     <v>       0.06269592      -0.06269592       0.00000000 </v>
    </varray>
   </crystal>
   <varray name="positions" >
    <v>       0.96666667       0.93333333       0.40000000 </v>
    <v>       0.63333333       0.26666667       0.40000000 </v>
    <v>       0.50000000       0.00000000       0.00000000 </v>
    <v>       0.00000000       0.00000000       0.00000000 </v>
    <v>       0.10000000       0.20000000       0.80000000 </v>
    <v>       0.03333333       0.06666667       0.60000000 </v>
    <v>       0.90000000       0.80000000       0.20000000 </v>
    <v>       0.80000000       0.60000000       0.40000000 </v>
    <v>       0.73333333       0.46666667       0.20000000 </v>
    <v>       0.66666667       0.33333333       0.00000000 </v>
    <v>       0.36666667       0.73333333       0.60000000 </v>
    <v>       0.13333333       0.26666667       0.40000000 </v>
    <v>       0.83333333       0.66666667       0.00000000 </v>
    <v>       0.93333333       0.86666667       0.80000000 </v>
    <v>       0.56666667       0.13333333       0.20000000 </v>
    <v>       0.40000000       0.80000000       0.20000000 </v>
    <v>       0.30000000       0.60000000       0.40000000 </v>
    <v>       0.86666667       0.73333333       0.60000000 </v>
    <v>       0.46666667       0.93333333       0.40000000 </v>
    <v>       0.16666667       0.33333333       0.00000000 </v>
    <v>       0.26666667       0.53333333       0.80000000 </v>
    <v>       0.20000000       0.40000000       0.60000000 </v>
    <v>       0.06666667       0.13333333       0.20000000 </v>
    <v>       0.76666667       0.53333333       0.80000000 </v>
    <v>       0.70000000       0.40000000       0.60000000 </v>
    <v>       0.60000000       0.20000000       0.80000000 </v>
    <v>       0.53333333       0.06666667       0.60000000 </v>
    <v>       0.33333333       0.66666667       0.00000000 </v>
    <v>       0.23333333       0.46666667       0.20000000 </v>
   </varray>
  </structure>
  <varray name="forces" >
   <v>      -0.04627476       0.38832004       0.20583006 </v>
   <v>       0.05871659      -0.03677825       0.09039934 </v>
   <v>      -0.67855282       0.74934197       0.32812176 </v>
   <v>       0.39642868      -0.06055064       0.08872358 </v>
   <v>      -0.48419883      -0.13587574       0.18692893 </v>
   <v>      -0.40982191       0.16856622      -0.04258788 </v>
   <v>       0.22413790      -0.29728375       0.02140753 </v>
   <v>      -0.35326440      -0.20113800       0.47404882 </v>
   <v>      -0.10852917       0.12949839      -0.07644682 </v>
   <v>       0.07763878       0.44970273      -0.53152029 </v>
   <v>       0.16581298      -0.45733392      -0.02850195 </v>
   <v>       0.02040491       0.16744665      -0.44674573 </v>
   <v>       0.02208939      -0.50773009       0.27672789 </v>
   <v>       0.19604121       0.35052638       0.04098316 </v>
   <v>      -0.20347480       0.29536337      -0.01807313 </v>
   <v>      -0.71779727      -0.07878105       0.50459686 </v>
   <v>       0.28840116      -0.15237181      -0.27992914 </v>
   <v>      -0.12819759       0.36756925       0.22787021 </v>
   <v>       0.59080126      -0.53522717       0.15234166 </v>
   <v>       0.01651959      -0.21418006      -0.30842192 </v>
   <v>      -0.15337830       0.06445513       0.16591846 </v>
   <v>      -0.25909832      -0.01592184       0.51797147 </v>
   <v>       0.39669191      -0.19670461      -0.68903792 </v>
   <v>       0.09906452       0.00339660       0.06855587 </v>
   <v>       0.80750010      -0.02052355      -0.84996596 </v>
   <v>      -0.28995598       0.36545325      -0.38191216 </v>
   <v>       0.47120057      -0.76668807      -0.09076861 </v>
   <v>      -0.24058956      -0.07430377       0.48943718 </v>
   <v>       0.24168417       0.25175234      -0.09595127 </v>
  </varray>
  <varray name="stress" >
   <v>     -36.74226847      -6.54734310       3.50824503 </v>
   <v>      -6.54734296     -35.89937144      -4.87281544 </v>
   <v>       3.50824498      -4.87281554     -34.31788894 </v>
  </varray>
  <energy>
   <i name="e_fr_energy">   -329.50365294 </i>
   <i name="e_wo_entrp">   -329.49722586 </i>
   <i name="e_0_energy">     -0.01928122 </i>
  </energy>
  <time name="totalsc">  536.27  537.56</time>
 </calculation>
 <calculation>
  <scstep>
   <time name="dav">   23.68   23.72</time>
   <time name="total">   24.30   24.34</time>
   <energy>
    <i name="alphaZ">   1375.30136543 </i>
    <i name="ewald"> -11895.16415218 </i>
    <i name="hartreedc">  -2995.09084781 </i>
    <i name="XCdc">   -826.69884657 </i>
    <i name="pawpsdc">  20597.84315710 </i>
    <i name="pawaedc"> -19108.02257931 </i>
    <i name="eentropy">     -0.01635325 </i>
    <i name="bandstr">   -560.39363433 </i>
    <i name="atom">  13080.25727947 </i>
    <i name="e_fr_energy">   -331.98461146 </i>
    <i name="e_wo_entrp">   -331.96825820 </i>
    <i name="e_0_energy">   -331.97916037 </i>
   </energy>
  </scstep>
  <scstep>
   <time name="dav">   27.03   27.11</time>
   <time name="total">   27.65   27.74</time>
   <energy>
    <i name="e_fr_energy">   -332.47852428 </i>
    <i name="e_wo_entrp">   -332.46902714 </i>
    <i name="e_0_energy">   -332.47535857 </i>
   </energy>
  </scstep>
  <scstep>
   <time name="dav">   24.62   24.69</time>
   <time name="total">   25.24   25.31</time>
   <energy>
    <i name="e_fr_energy">   -330.38063944 </i>
    <i name="e_wo_entrp">   -330.36898096 </i>
    <i name="e_0_energy">   -330.37675328 </i>
   </energy>
  </scstep>
  <scstep>
   <time name="dav">   26.46   26.52</time>
   <time name="total">   27.08   27.14</time>
   <energy>
    <i name="e_fr_energy">   -330.08735462 </i>
    <i name="e_wo_entrp">   -330.07684568 </i>
    <i name="e_0_energy">   -330.08385164 </i>
   </energy>
  </scstep>
  <scstep>
   <time name="dav">   25.76   25.83</time>
   <time name="total">   26.39   26.47</time>
   <energy>
    <i name="e_fr_energy">   -329.67604339 </i>
    <i name="e_wo_entrp">   -329.66194840 </i>
    <i name="e_0_energy">   -329.67134506 </i>
   </energy>
  </scstep>
  <scstep>
   <time name="dav">   27.31   27.40</time>
   <time name="total">   27.93   28.02</time>
   <energy>
    <i name="e_fr_energy">   -329.50938112 </i>
    <i name="e_wo_entrp">   -329.49281603 </i>
    <i name="e_0_energy">   -329.50385942 </i>
   </energy>
  </scstep>
  <scstep>
   <time name="dav">   27.68   27.75</time>
   <time name="total">   28.30   28.37</time>
   <energy>
    <i name="e_fr_energy">   -329.53516921 </i>
    <i name="e_wo_entrp">   -329.51985017 </i>
    <i name="e_0_energy">   -329.53006286 </i>
   </energy>
  </scstep>
  <scstep>
   <time name="dav">   26.23   26.29</time>
   <time name="total">   26.85   26.93</time>
   <energy>
    <i name="e_fr_energy">   -329.51305972 </i>
    <i name="e_wo_entrp">   -329.49583198 </i>
    <i name="e_0_energy">   -329.50731714 </i>
   </energy>
  </scstep>
  <scstep>
   <time name="dav">   25.87   25.94</time>
   <time name="total">   26.48   26.56</time>
   <energy>
    <i name="e_fr_energy">   -329.51836970 </i>
    <i name="e_wo_entrp">   -329.50101498 </i>
    <i name="e_0_energy">   -329.51258479 </i>
   </energy>
  </scstep>
  <scstep>
   <time name="dav">   26.11   26.17</time>
   <time name="total">   26.72   26.79</time>
   <energy>
    <i name="e_fr_energy">   -329.52628846 </i>
    <i name="e_wo_entrp">   -329.50949062 </i>
    <i name="e_0_energy">   -329.52068918 </i>
   </energy>
  </scstep>
  <scstep>
   <time name="dav">   26.96   27.03</time>
   <time name="total">   27.59   27.67</time>
   <energy>
    <i name="e_fr_energy">   -329.52672863 </i>
    <i name="e_wo_entrp">   -329.50959267 </i>
    <i name="e_0_energy">   -329.52101664 </i>
   </energy>
  </scstep>
  <scstep>
   <time name="dav">   26.31   26.38</time>
   <time name="total">   26.93   27.00</time>
   <energy>
    <i name="e_fr_energy">   -329.52646055 </i>
    <i name="e_wo_entrp">   -329.50925655 </i>
    <i name="e_0_energy">   -329.52072588 </i>
   </energy>
  </scstep>
  <scstep>
   <time name="dav">   27.01   27.07</time>
   <time name="total">   27.62   27.69</time>
   <energy>
    <i name="e_fr_energy">   -329.52675253 </i>
    <i name="e_wo_entrp">   -329.50957347 </i>
    <i name="e_0_energy">   -329.52102618 </i>
   </energy>
  </scstep>
  <scstep>
   <time name="dav">   23.92   23.98</time>
   <time name="total">   24.54   24.61</time>
   <energy>
    <i name="e_fr_energy">   -329.52678898 </i>
    <i name="e_wo_entrp">   -329.50961176 </i>
    <i name="e_0_energy">   -329.52106324 </i>
   </energy>
  </scstep>
  <scstep>
   <time name="dav">   19.88   19.93</time>
   <time name="total">   19.91   19.96</time>
   <energy>
    <i name="alphaZ">   1375.30136543 </i>
    <i name="ewald"> -11895.16415218 </i>
    <i name="hartreedc">  -2897.60343003 </i>
    <i name="XCdc">   -829.59188755 </i>
    <i name="pawpsdc">  22394.82490212 </i>
    <i name="pawaedc"> -20905.55635478 </i>
    <i name="eentropy">     -0.01717054 </i>
    <i name="bandstr">   -651.97729336 </i>
    <i name="atom">  13080.25727947 </i>
    <i name="e_fr_energy">   -329.52674141 </i>
    <i name="e_wo_entrp">   -329.50957087 </i>
    <i name="e_0_energy">   -329.52101790 </i>
   </energy>
  </scstep>
  <structure>
   <crystal>
    <varray name="basis" >
     <v>      -3.12584119      -3.11368375      -3.13245185 </v>
     <v>       1.54594646       1.58041829      -7.83773190 </v>
     <v>       7.85042613      -7.85272428      -1.53353417 </v>
    </varray>
    <i name="volume">    461.05726015 </i>
    <varray name="rec_basis" >
     <v>      -0.13874887      -0.12831112      -0.05324035 </v>
     <v>       0.04299540       0.06373323      -0.10625603 </v>
     <v>       0.06366845      -0.06364092      -0.00027447 </v>
    </varray>
   </crystal>
   <varray name="positions" >
    <v>       0.96410209       0.93337695       0.39868552 </v>
    <v>       0.63294317       0.26621812       0.40028884 </v>
    <v>       0.49908680      -0.00075584      -0.00431884 </v>
    <v>      -0.00245528       0.00016896       0.00138219 </v>
    <v>       0.10352391       0.19767037       0.79894646 </v>
    <v>       0.03510668       0.06656484       0.59825060 </v>
    <v>       0.90027553       0.79944487       0.20157710 </v>
    <v>       0.80233695       0.59628961       0.39953988 </v>
    <v>       0.73345388       0.46722488       0.19928006 </v>
    <v>       0.66477722       0.33752947      -0.00112535 </v>
    <v>       0.36841840       0.73242810       0.60188478 </v>
    <v>       0.13331271       0.26946634       0.39955525 </v>
    <v>       0.83556245       0.66378053       0.00160250 </v>
    <v>       0.92982489       0.86791558       0.79953274 </v>
    <v>       0.56625894       0.13390751       0.19849121 </v>
    <v>       0.40390869       0.79577065       0.19806722 </v>
    <v>       0.29973731       0.60153180       0.40133317 </v>
    <v>       0.86470893       0.73303789       0.59850049 </v>
    <v>       0.46564869       0.93213781       0.40340581 </v>
    <v>       0.16863142       0.33427359       0.00069778 </v>
    <v>       0.26686371       0.53238261       0.79934114 </v>
    <v>       0.20048872       0.39681828       0.59926448 </v>
    <v>       0.06699366       0.13701173       0.20179480 </v>
    <v>       0.76582412       0.53319777       0.80028936 </v>
    <v>       0.69697468       0.40585088       0.60250446 </v>
    <v>       0.60065208       0.20244592       0.79801764 </v>
    <v>       0.53511205       0.06575543       0.60374414 </v>
    <v>       0.33412584       0.66348953      -0.00050295 </v>
    <v>       0.23046843       0.46839915       0.19996955 </v>
   </varray>
  </structure>
  <varray name="forces" >
   <v>       0.03846340       0.24458345       0.02546722 </v>
   <v>       0.05243673      -0.02986983      -0.00376764 </v>
   <v>      -0.58701593       0.67594790       0.37907553 </v>
   <v>       0.19170724      -0.01517265      -0.06887435 </v>
   <v>      -0.48712063      -0.35778285       0.32347737 </v>
   <v>      -0.20991983       0.03333369      -0.04641410 </v>
   <v>       0.11511979       0.00184746      -0.06265057 </v>
   <v>       0.03670004      -0.10998331       0.07576226 </v>
   <v>      -0.06182033      -0.04609784       0.14074041 </v>
   <v>      -0.05414162       0.18783505      -0.13391041 </v>
   <v>       0.37881080      -0.47841540      -0.20807755 </v>
   <v>       0.05948071      -0.07031073      -0.10171387 </v>
   <v>      -0.12396869      -0.11739675       0.04724914 </v>
   <v>      -0.00389065       0.23069795       0.20052046 </v>
   <v>      -0.11116335       0.17269487       0.14760657 </v>
   <v>      -0.11508110      -0.05232864      -0.01555097 </v>
   <v>       0.19967834      -0.21352849      -0.11305001 </v>
   <v>      -0.08011646       0.14950048       0.14834514 </v>
   <v>       0.27024541      -0.29972625       0.11846659 </v>
   <v>      -0.10859513      -0.11008923      -0.09767541 </v>
   <v>      -0.04264421       0.11848064       0.12571965 </v>
   <v>      -0.08585163       0.07025801       0.18420283 </v>
   <v>       0.25534620      -0.10766392      -0.43540976 </v>
   <v>       0.25963813       0.21309825      -0.37303530 </v>
   <v>       0.29042201       0.02048893      -0.32111155 </v>
   <v>      -0.05418371       0.11687648      -0.27710401 </v>
   <v>       0.35764084      -0.52676932       0.19061909 </v>
   <v>      -0.44090792       0.26113064       0.15367127 </v>
   <v>       0.06073157       0.03836143      -0.00257802 </v>
  </varray>
  <varray name="stress" >
   <v>      87.14789965      -4.10517703       1.77767233 </v>
   <v>      -4.10517720      87.10344610      -3.30588855 </v>
   <v>       1.77767216      -3.30588850      87.82990011 </v>
  </varray>
  <energy>
   <i name="e_fr_energy">   -329.52674141 </i>
   <i name="e_wo_entrp">   -329.52101790 </i>
   <i name="e_0_energy">     -0.01717054 </i>
  </energy>
  <time name="totalsc">  412.46  413.56</time>
 </calculation>
 <calculation>
  <scstep>
   <time name="dav">   23.72   23.76</time>
   <time name="total">   24.36   24.40</time>
   <energy>
    <i name="alphaZ">   1339.23374817 </i>
    <i name="ewald"> -11778.57494859 </i>
    <i name="hartreedc">  -2883.37619020 </i>
    <i name="XCdc">   -832.92501268 </i>
    <i name="pawpsdc">  22394.80538779 </i>
    <i name="pawaedc"> -20905.53807870 </i>
    <i name="eentropy">     -0.01539205 </i>
    <i name="bandstr">   -744.23221897 </i>
    <i name="atom">  13080.25727947 </i>
    <i name="e_fr_energy">   -330.36542576 </i>
    <i name="e_wo_entrp">   -330.35003371 </i>
    <i name="e_0_energy">   -330.36029508 </i>
   </energy>
  </scstep>
  <scstep>
   <time name="dav">   29.23   29.27</time>
   <time name="total">   29.85   29.89</time>
   <energy>
    <i name="e_fr_energy">   -330.51497326 </i>
    <i name="e_wo_entrp">   -330.50191908 </i>
    <i name="e_0_energy">   -330.51062186 </i>
   </energy>
  </scstep>
  <scstep>
   <time name="dav">   25.02   25.05</time>
   <time name="total">   25.63   25.67</time>
   <energy>
    <i name="e_fr_energy">   -330.09707076 </i>
    <i name="e_wo_entrp">   -330.08159107 </i>
    <i name="e_0_energy">   -330.09191087 </i>
   </energy>
  </scstep>
  <scstep>
   <time name="dav">   27.43   27.47</time>
   <time name="total">   28.05   28.10</time>
   <energy>
    <i name="e_fr_energy">   -329.93034735 </i>
    <i name="e_wo_entrp">   -329.91417569 </i>
    <i name="e_0_energy">   -329.92495680 </i>
   </energy>
  </scstep>
  <scstep>
   <time name="dav">   25.83   25.87</time>
   <time name="total">   26.45   26.49</time>
   <energy>
    <i name="e_fr_energy">   -329.83105091 </i>
    <i name="e_wo_entrp">   -329.81255157 </i>
    <i name="e_0_energy">   -329.82488446 </i>
   </energy>
  </scstep>
  <scstep>
   <time name="dav">   26.91   26.95</time>
   <time name="total">   27.52   27.56</time>
   <energy>
    <i name="e_fr_energy">   -329.78852259 </i>
    <i name="e_wo_entrp">   -329.77053164 </i>
    <i name="e_0_energy">   -329.78252561 </i>
   </energy>
  </scstep>
  <scstep>
   <time name="dav">   26.80   26.84</time>
   <time name="total">   27.42   27.47</time>
   <energy>
    <i name="e_fr_energy">   -329.79428087 </i>
    <i name="e_wo_entrp">   -329.77479928 </i>
    <i name="e_0_energy">   -329.78778701 </i>
   </energy>
  </scstep>
  <scstep>
   <time name="dav">   26.32   26.36</time>
   <time name="total">   26.94   26.98</time>
   <energy>
    <i name="e_fr_energy">   -329.78770862 </i>
    <i name="e_wo_entrp">   -329.76879344 </i>
    <i name="e_0_energy">   -329.78140356 </i>
   </energy>
  </scstep>
  <scstep>
   <time name="dav">   25.57   25.60</time>
   <time name="total">   26.18   26.22</time>
   <energy>
    <i name="e_fr_energy">   -329.78848833 </i>
    <i name="e_wo_entrp">   -329.76979851 </i>
    <i name="e_0_energy">   -329.78225839 </i>
   </energy>
  </scstep>
  <scstep>
   <time name="dav">   25.82   25.86</time>
   <time name="total">   26.44   26.48</time>
   <energy>
    <i name="e_fr_energy">   -329.79028195 </i>
    <i name="e_wo_entrp">   -329.77135771 </i>
    <i name="e_0_energy">   -329.78397387 </i>
   </energy>
  </scstep>
  <scstep>
   <time name="dav">   25.83   25.87</time>
   <time name="total">   26.44   26.49</time>
   <energy>
    <i name="e_fr_energy">   -329.79034430 </i>
    <i name="e_wo_entrp">   -329.77144336 </i>
    <i name="e_0_energy">   -329.78404398 </i>
   </energy>
  </scstep>
  <scstep>
   <time name="dav">   26.52   26.57</time>
   <time name="total">   27.13   27.18</time>
   <energy>
    <i name="e_fr_energy">   -329.79023507 </i>
    <i name="e_wo_entrp">   -329.77139660 </i>
    <i name="e_0_energy">   -329.78395558 </i>
   </energy>
  </scstep>
  <scstep>
   <time name="dav">   24.61   24.65</time>
   <time name="total">   25.24   25.30</time>
   <energy>
    <i name="e_fr_energy">   -329.79026002 </i>
    <i name="e_wo_entrp">   -329.77138393 </i>
    <i name="e_0_energy">   -329.78396799 </i>
   </energy>
  </scstep>
  <scstep>
   <time name="dav">   18.69   18.72</time>
   <time name="total">   18.72   18.75</time>
   <energy>
    <i name="alphaZ">   1339.23374817 </i>
    <i name="ewald"> -11778.57494859 </i>
    <i name="hartreedc">  -2930.06440232 </i>
    <i name="XCdc">   -831.54491810 </i>
    <i name="pawpsdc">  21481.18405357 </i>
    <i name="pawaedc"> -19991.48661271 </i>
    <i name="eentropy">     -0.01886221 </i>
    <i name="bandstr">   -698.77559120 </i>
    <i name="atom">  13080.25727947 </i>
    <i name="e_fr_energy">   -329.79025392 </i>
    <i name="e_wo_entrp">   -329.77139171 </i>
    <i name="e_0_energy">   -329.78396651 </i>
   </energy>
  </scstep>
  <structure>
   <crystal>
    <varray name="basis" >
     <v>      -3.15692222      -3.15065432      -3.16033042 </v>
     <v>       1.56970991       1.58748224      -7.90422992 </v>
     <v>       7.91077458      -7.91195941      -1.56331062 </v>
    </varray>
    <i name="volume">    473.47423875 </i>
    <varray name="rec_basis" >
     <v>      -0.13732463      -0.12688048      -0.05275407 </v>
     <v>       0.04240770       0.06322606      -0.10539445 </v>
     <v>       0.06319344      -0.06317945      -0.00013928 </v>
    </varray>
   </crystal>
   <varray name="positions" >
    <v>       0.96537260       0.93335618       0.39933325 </v>
    <v>       0.63313576       0.26643839       0.40014735 </v>
    <v>       0.49954183      -0.00037533      -0.00219255 </v>
    <v>      -0.00124098       0.00008113       0.00070282 </v>
    <v>       0.10177896       0.19882349       0.79946604 </v>
    <v>       0.03423026       0.06661980       0.59911084 </v>
    <v>       0.90013750       0.79971561       0.20080157 </v>
    <v>       0.80117812       0.59812137       0.39976941 </v>
    <v>       0.73339516       0.46695121       0.19963366 </v>
    <v>       0.66571616       0.33546172      -0.00057543 </v>
    <v>       0.36754920       0.73287190       0.60095767 </v>
    <v>       0.13332514       0.26808703       0.39977108 </v>
    <v>       0.83445587       0.66520178       0.00081625 </v>
    <v>       0.93156270       0.86729826       0.79976265 </v>
    <v>       0.56646236       0.13362715       0.19923316 </v>
    <v>       0.40197273       0.79786231       0.19902135 </v>
    <v>       0.29986727       0.60077382       0.40067561 </v>
    <v>       0.86567899       0.73318508       0.59923941 </v>
    <v>       0.46614901       0.93271968       0.40173163 </v>
    <v>       0.16765897       0.33381012       0.00035266 </v>
    <v>       0.26676608       0.53285274       0.79966629 </v>
    <v>       0.20024530       0.39838861       0.59962966 </v>
    <v>       0.06683279       0.13519504       0.20090755 </v>
    <v>       0.76624084       0.53326341       0.80014745 </v>
    <v>       0.69847400       0.40295936       0.60126694 </v>
    <v>       0.60033255       0.20124454       0.79899018 </v>
    <v>       0.53422798       0.06619852       0.60190211 </v>
    <v>       0.33373187       0.66505736      -0.00025234 </v>
    <v>       0.23188767       0.46754305       0.19998375 </v>
   </varray>
  </structure>
  <varray name="forces" >
   <v>      -0.01363773       0.32896066       0.12702094 </v>
   <v>       0.05899712      -0.02920028       0.04364120 </v>
   <v>      -0.64610494       0.72002431       0.35784137 </v>
   <v>       0.29778277      -0.03437122       0.01450251 </v>
   <v>      -0.50177996      -0.25538243       0.25948898 </v>
   <v>      -0.31158770       0.09482029      -0.04579572 </v>
   <v>       0.17338195      -0.15707999      -0.01412964 </v>
   <v>      -0.16857531      -0.16762892       0.28871769 </v>
   <v>      -0.08860006       0.04579240       0.02032695 </v>
   <v>       0.02648231       0.33358116      -0.35690580 </v>
   <v>       0.26120625      -0.48765791      -0.11073668 </v>
   <v>       0.04238896       0.06883377      -0.28853576 </v>
   <v>      -0.04828380      -0.32893349       0.15677513 </v>
   <v>       0.10204439       0.30962589       0.10285028 </v>
   <v>      -0.16223151       0.22569176       0.05583358 </v>
   <v>      -0.42804814      -0.07691759       0.24383524 </v>
   <v>       0.24566524      -0.18562883      -0.17973930 </v>
   <v>      -0.10345522       0.26916106       0.19797225 </v>
   <v>       0.43398970      -0.42957364       0.13562440 </v>
   <v>      -0.03702005      -0.16828146      -0.21014667 </v>
   <v>      -0.11646205       0.08780225       0.14179910 </v>
   <v>      -0.17259405       0.03512483       0.35696274 </v>
   <v>       0.34030443      -0.14823309      -0.56861416 </v>
   <v>       0.17589685       0.12406006      -0.13514524 </v>
   <v>       0.57844102      -0.00077460      -0.61636494 </v>
   <v>      -0.18345616       0.25959311      -0.32429513 </v>
   <v>       0.43011391      -0.67315069       0.05084084 </v>
   <v>      -0.34761937       0.07832483       0.34213071 </v>
   <v>       0.16276116       0.16141776      -0.04575486 </v>
  </varray>
  <varray name="stress" >
   <v>      23.03346610      -5.41525170       2.99462184 </v>
   <v>      -5.41525155      23.80197259      -3.85748044 </v>
   <v>       2.99462184      -3.85748030      24.86330804 </v>
  </varray>
  <energy>
   <i name="e_fr_energy">   -329.79025392 </i>
   <i name="e_wo_entrp">   -329.78396651 </i>
   <i name="e_0_energy">     -0.01886221 </i>
  </energy>
  <time name="totalsc">  384.29  385.07</time>
 </calculation>
 <calculation>
  <scstep>
   <time name="dav">   19.02   19.05</time>
   <time name="total">   19.64   19.75</time>
   <energy>
    <i name="alphaZ">   1330.01358983 </i>
    <i name="ewald"> -11779.18062726 </i>
    <i name="hartreedc">  -2896.66647598 </i>
    <i name="XCdc">   -832.58672371 </i>
    <i name="pawpsdc">  21481.54057038 </i>
    <i name="pawaedc"> -19991.89744878 </i>
    <i name="eentropy">     -0.01599614 </i>
    <i name="bandstr">   -721.28741700 </i>
    <i name="atom">  13080.25727947 </i>
    <i name="e_fr_energy">   -329.82324918 </i>
    <i name="e_wo_entrp">   -329.80725304 </i>
    <i name="e_0_energy">   -329.81791714 </i>
   </energy>
  </scstep>
  <scstep>
   <time name="dav">   26.67   26.72</time>
   <time name="total">   27.29   27.34</time>
   <energy>
    <i name="e_fr_energy">   -330.26626541 </i>
    <i name="e_wo_entrp">   -330.24788628 </i>
    <i name="e_0_energy">   -330.26013903 </i>
   </energy>
  </scstep>
  <scstep>
   <time name="dav">   26.44   26.49</time>
   <time name="total">   27.07   27.11</time>
   <energy>
    <i name="e_fr_energy">   -330.23145936 </i>
    <i name="e_wo_entrp">   -330.21363798 </i>
    <i name="e_0_energy">   -330.22551890 </i>
   </energy>
  </scstep>
  <scstep>
   <time name="dav">   26.51   26.55</time>
   <time name="total">   27.13   27.19</time>
   <energy>
    <i name="e_fr_energy">   -330.17096747 </i>
    <i name="e_wo_entrp">   -330.15205670 </i>
    <i name="e_0_energy">   -330.16466388 </i>
   </energy>
  </scstep>
  <scstep>
   <time name="dav">   25.54   25.58</time>
   <time name="total">   26.16   26.20</time>
   <energy>
    <i name="e_fr_energy">   -330.15841526 </i>
    <i name="e_wo_entrp">   -330.13910740 </i>
    <i name="e_0_energy">   -330.15197931 </i>
   </energy>
  </scstep>
  <scstep>
   <time name="dav">   26.35   26.39</time>
   <time name="total">   26.97   27.01</time>
   <energy>
    <i name="e_fr_energy">   -330.16366451 </i>
    <i name="e_wo_entrp">   -330.14322393 </i>
    <i name="e_0_energy">   -330.15685098 </i>
   </energy>
  </scstep>
  <scstep>
   <time name="dav">   27.40   27.44</time>
   <time name="total">   28.03   28.08</time>
   <energy>
    <i name="e_fr_energy">   -330.14794397 </i>
    <i name="e_wo_entrp">   -330.12852398 </i>
    <i name="e_0_energy">   -330.14147064 </i>
   </energy>
  </scstep>
  <scstep>
   <time name="dav">   26.78   26.82</time>
   <time name="total">   27.41   27.46</time>
   <energy>
    <i name="e_fr_energy">   -330.14668201 </i>
    <i name="e_wo_entrp">   -330.12706861 </i>
    <i name="e_0_energy">   -330.14014421 </i>
   </energy>
  </scstep>
  <scstep>
   <time name="dav">   24.69   24.73</time>
   <time name="total">   25.32   25.36</time>
   <energy>
    <i name="e_fr_energy">   -330.14644762 </i>
    <i name="e_wo_entrp">   -330.12692416 </i>
    <i name="e_0_energy">   -330.13993980 </i>
   </energy>
  </scstep>
  <scstep>
   <time name="dav">   23.26   23.30</time>
   <time name="total">   23.89   23.94</time>
   <energy>
    <i name="e_fr_energy">   -330.14630974 </i>
    <i name="e_wo_entrp">   -330.12674209 </i>
    <i name="e_0_energy">   -330.13978719 </i>
   </energy>
  </scstep>
  <scstep>
   <time name="dav">   22.82   22.85</time>
   <time name="total">   23.44   23.48</time>
   <energy>
    <i name="e_fr_energy">   -330.14637686 </i>
    <i name="e_wo_entrp">   -330.12682318 </i>
    <i name="e_0_energy">   -330.13985896 </i>
   </energy>
  </scstep>
  <scstep>
   <time name="dav">   22.17   22.20</time>
   <time name="total">   22.79   22.83</time>
   <energy>
    <i name="e_fr_energy">   -330.14635938 </i>
    <i name="e_wo_entrp">   -330.12677379 </i>
    <i name="e_0_energy">   -330.13983085 </i>
   </energy>
  </scstep>
  <scstep>
   <time name="dav">   16.48   16.50</time>
   <time name="total">   16.51   16.54</time>
   <energy>
    <i name="alphaZ">   1330.01358983 </i>
    <i name="ewald"> -11779.18062726 </i>
    <i name="hartreedc">  -2906.90409457 </i>
    <i name="XCdc">   -832.21864006 </i>
    <i name="pawpsdc">  21221.96381017 </i>
    <i name="pawaedc"> -19732.73112458 </i>
    <i name="eentropy">     -0.01956559 </i>
    <i name="bandstr">   -711.32691111 </i>
    <i name="atom">  13080.25727947 </i>
    <i name="e_fr_energy">   -330.14628369 </i>
    <i name="e_wo_entrp">   -330.12671811 </i>
    <i name="e_0_energy">   -330.13976183 </i>
   </energy>
  </scstep>
  <structure>
   <crystal>
    <varray name="basis" >
     <v>      -3.15662323      -3.13623579      -3.16778673 </v>
     <v>       1.54914587       1.60733117      -7.92951619 </v>
     <v>       7.95176236      -7.95610059      -1.52858786 </v>
    </varray>
    <i name="volume">    476.75654164 </i>
    <varray name="rec_basis" >
     <v>      -0.13748102      -0.12728850      -0.05266058 </v>
     <v>       0.04280847       0.06295595      -0.10498653 </v>
     <v>       0.06284238      -0.06279486      -0.00045149 </v>
    </varray>
   </crystal>
   <varray name="positions" >
    <v>       0.96214982       0.93367379       0.39777914 </v>
    <v>       0.63266259       0.26605868       0.40052359 </v>
    <v>       0.49817833      -0.00158364      -0.00795980 </v>
    <v>      -0.00400801       0.00055070       0.00225810 </v>
    <v>       0.10723662       0.19491726       0.79829657 </v>
    <v>       0.03650015       0.06646600       0.59718089 </v>
    <v>       0.90012997       0.79941175       0.20244284 </v>
    <v>       0.80353825       0.59429809       0.39954997 </v>
    <v>       0.73368104       0.46707881       0.19892986 </v>
    <v>       0.66365298       0.34001662      -0.00193883 </v>
    <v>       0.36975287       0.73210048       0.60389412 </v>
    <v>       0.13334352       0.27097958       0.39949518 </v>
    <v>       0.83724161       0.66214706       0.00233016 </v>
    <v>       0.92737096       0.86844820       0.79897392 </v>
    <v>       0.56586654       0.13395806       0.19746515 </v>
    <v>       0.40621800       0.79377264       0.19715490 </v>
    <v>       0.29971451       0.60225442       0.40248331 </v>
    <v>       0.86344351       0.73268837       0.59751627 </v>
    <v>       0.46514339       0.93116387       0.40568742 </v>
    <v>       0.17020798       0.33467974       0.00103981 </v>
    <v>       0.26674333       0.53178611       0.79879696 </v>
    <v>       0.20049147       0.39504895       0.59871281 </v>
    <v>       0.06707477       0.13973625       0.20309062 </v>
    <v>       0.76442135       0.53448834       0.80042508 </v>
    <v>       0.69502542       0.40957673       0.60402981 </v>
    <v>       0.60104239       0.20424351       0.79685419 </v>
    <v>       0.53608838       0.06448526       0.60667585 </v>
    <v>       0.33496195       0.66158367      -0.00166194 </v>
    <v>       0.22879299       0.46930403       0.19997407 </v>
   </varray>
  </structure>
  <varray name="forces" >
   <v>       0.00331891       0.15237042      -0.01364421 </v>
   <v>       0.13214999      -0.07011587      -0.06751794 </v>
   <v>      -0.43058577       0.34533577       0.23160348 </v>
   <v>       0.20708226       0.00629597       0.07116431 </v>
   <v>      -0.22839714      -0.18602276       0.21110354 </v>
   <v>      -0.03060551       0.13281876      -0.04604227 </v>
   <v>      -0.01565246       0.08191888      -0.03059612 </v>
   <v>       0.08533405      -0.03956358       0.00203622 </v>
   <v>       0.06731726      -0.02807373       0.12508673 </v>
   <v>      -0.12622473       0.09377376       0.02537396 </v>
   <v>       0.21959814      -0.23713774      -0.07443638 </v>
   <v>       0.07322614      -0.08927806      -0.02064895 </v>
   <v>      -0.08823518       0.03552987      -0.07646711 </v>
   <v>       0.06584544       0.19412241       0.10436226 </v>
   <v>      -0.14460791       0.14170268       0.13593455 </v>
   <v>      -0.01275582      -0.00295565      -0.06132129 </v>
   <v>       0.04848431      -0.10732505      -0.06722652 </v>
   <v>      -0.09160127       0.00938622       0.05584404 </v>
   <v>       0.12024372      -0.15855412       0.07794807 </v>
   <v>      -0.12469972      -0.06855410      -0.00414920 </v>
   <v>       0.05789842       0.08299632       0.10814489 </v>
   <v>      -0.08830268       0.07348971       0.11176703 </v>
   <v>       0.25043414      -0.06695561      -0.24247692 </v>
   <v>       0.15916552       0.03076686      -0.25511652 </v>
   <v>       0.08365275      -0.01246133      -0.04144405 </v>
   <v>      -0.11809928      -0.07865527      -0.21446790 </v>
   <v>       0.14489723      -0.23783010      -0.00589363 </v>
   <v>      -0.20091694       0.08727068       0.04336664 </v>
   <v>      -0.01796387      -0.08429535      -0.08228668 </v>
  </varray>
  <varray name="stress" >
   <v>      10.07615884      -1.55522908       1.49357076 </v>
   <v>      -1.55522914       9.41754980      -1.60834034 </v>
   <v>       1.49357078      -1.60834029       9.68541048 </v>
  </varray>
  <energy>
   <i name="e_fr_energy">   -330.14628369 </i>
   <i name="e_wo_entrp">   -330.13976183 </i>
   <i name="e_0_energy">     -0.01956559 </i>
  </energy>
  <time name="totalsc">  339.42  340.17</time>
 </calculation>
 <calculation>
  <scstep>
   <time name="dav">   19.62   19.64</time>
   <time name="total">   20.24   20.27</time>
   <energy>
    <i name="alphaZ">   1325.52669513 </i>
    <i name="ewald"> -11777.86000488 </i>
    <i name="hartreedc">  -2891.75222636 </i>
    <i name="XCdc">   -832.72645157 </i>
    <i name="pawpsdc">  21221.81317693 </i>
    <i name="pawaedc"> -19732.59486352 </i>
    <i name="eentropy">     -0.01704246 </i>
    <i name="bandstr">   -722.77157542 </i>
    <i name="atom">  13080.25727947 </i>
    <i name="e_fr_energy">   -330.12501268 </i>
    <i name="e_wo_entrp">   -330.10797022 </i>
    <i name="e_0_energy">   -330.11933186 </i>
   </energy>
  </scstep>
  <scstep>
   <time name="dav">   27.08   27.12</time>
   <time name="total">   27.70   27.74</time>
   <energy>
    <i name="e_fr_energy">   -330.21926116 </i>
    <i name="e_wo_entrp">   -330.20074858 </i>
    <i name="e_0_energy">   -330.21309030 </i>
   </energy>
  </scstep>
  <scstep>
   <time name="dav">   26.84   26.88</time>
   <time name="total">   27.48   27.52</time>
   <energy>
    <i name="e_fr_energy">   -330.21002205 </i>
    <i name="e_wo_entrp">   -330.19154066 </i>
    <i name="e_0_energy">   -330.20386159 </i>
   </energy>
  </scstep>
  <scstep>
   <time name="dav">   25.86   25.89</time>
   <time name="total">   26.48   26.51</time>
   <energy>
    <i name="e_fr_energy">   -330.19737313 </i>
    <i name="e_wo_entrp">   -330.17897141 </i>
    <i name="e_0_energy">   -330.19123922 </i>
   </energy>
  </scstep>
  <scstep>
   <time name="dav">   25.69   25.72</time>
   <time name="total">   26.31   26.34</time>
   <energy>
    <i name="e_fr_energy">   -330.19474120 </i>
    <i name="e_wo_entrp">   -330.17617231 </i>
    <i name="e_0_energy">   -330.18855157 </i>
   </energy>
  </scstep>
  <scstep>
   <time name="dav">   26.33   26.36</time>
   <time name="total">   26.97   27.01</time>
   <energy>
    <i name="e_fr_energy">   -330.19575287 </i>
    <i name="e_wo_entrp">   -330.17637793 </i>
    <i name="e_0_energy">   -330.18929456 </i>
   </energy>
  </scstep>
  <scstep>
   <time name="dav">   27.09   27.13</time>
   <time name="total">   27.71   27.75</time>
   <energy>
    <i name="e_fr_energy">   -330.19196497 </i>
    <i name="e_wo_entrp">   -330.17324886 </i>
    <i name="e_0_energy">   -330.18572627 </i>
   </energy>
  </scstep>
  <scstep>
   <time name="dav">   25.02   25.05</time>
   <time name="total">   25.64   25.68</time>
   <energy>
    <i name="e_fr_energy">   -330.19177618 </i>
    <i name="e_wo_entrp">   -330.17301374 </i>
    <i name="e_0_energy">   -330.18552203 </i>
   </energy>
  </scstep>
  <scstep>
   <time name="dav">   22.97   23.00</time>
   <time name="total">   23.61   23.64</time>
   <energy>
    <i name="e_fr_energy">   -330.19174047 </i>
    <i name="e_wo_entrp">   -330.17301590 </i>
    <i name="e_0_energy">   -330.18549895 </i>
   </energy>
  </scstep>
  <scstep>
   <time name="dav">   18.67   18.70</time>
   <time name="total">   18.70   18.73</time>
   <energy>
    <i name="alphaZ">   1325.52669513 </i>
    <i name="ewald"> -11777.86000488 </i>
    <i name="hartreedc">  -2897.16564540 </i>
    <i name="XCdc">   -832.53478044 </i>
    <i name="pawpsdc">  21113.27878971 </i>
    <i name="pawaedc"> -19624.05269076 </i>
    <i name="eentropy">     -0.01875181 </i>
    <i name="bandstr">   -717.62258265 </i>
    <i name="atom">  13080.25727947 </i>
    <i name="e_fr_energy">   -330.19169163 </i>
    <i name="e_wo_entrp">   -330.17293982 </i>
    <i name="e_0_energy">   -330.18544102 </i>
   </energy>
  </scstep>
  <structure>
   <crystal>
    <varray name="basis" >
     <v>      -3.15647583      -3.12912736      -3.17146274 </v>
     <v>       1.53900768       1.61711682      -7.94198248 </v>
     <v>       7.97196960      -7.97786246      -1.51146932 </v>
    </varray>
    <i name="volume">    478.37035780 </i>
    <varray name="rec_basis" >
     <v>      -0.13755925      -0.12748925      -0.05261530 </v>
     <v>       0.04300416       0.06282522      -0.10478751 </v>
     <v>       0.06267132      -0.06260752      -0.00060338 </v>
    </varray>
   </crystal>
   <varray name="positions" >
    <v>       0.96055694       0.93382903       0.39701603 </v>
    <v>       0.63242961       0.26587331       0.40070741 </v>
    <v>       0.49750085      -0.00218968      -0.01079003 </v>
    <v>      -0.00537316       0.00078741       0.00302015 </v>
    <v>       0.10993335       0.19299002       0.79772060 </v>
    <v>       0.03761925       0.06638406       0.59623529 </v>
    <v>       0.90012799       0.79926619       0.20324730 </v>
    <v>       0.80470642       0.59241641       0.39943863 </v>
    <v>       0.73382144       0.46713966       0.19858501 </v>
    <v>       0.66262940       0.34225401      -0.00260264 </v>
    <v>       0.37084419       0.73172623       0.60533409 </v>
    <v>       0.13335002       0.27240066       0.39936350 </v>
    <v>       0.83862088       0.66064676       0.00306995 </v>
    <v>       0.92529969       0.86901511       0.79858675 </v>
    <v>       0.56557049       0.13411714       0.19659831 </v>
    <v>       0.40831564       0.79175465       0.19623638 </v>
    <v>       0.29963954       0.60298645       0.40337154 </v>
    <v>       0.86233860       0.73244214       0.59666970 </v>
    <v>       0.46465174       0.93040912       0.40762487 </v>
    <v>       0.17146644       0.33510662       0.00137896 </v>
    <v>       0.26673216       0.53125986       0.79836933 </v>
    <v>       0.20061486       0.39340513       0.59825915 </v>
    <v>       0.06719257       0.14197315       0.20416692 </v>
    <v>       0.76352226       0.53509257       0.80056196 </v>
    <v>       0.69331991       0.41283853       0.60539140 </v>
    <v>       0.60138851       0.20571203       0.79581079 </v>
    <v>       0.53701266       0.06365259       0.60901545 </v>
    <v>       0.33557081       0.65987201      -0.00235697 </v>
    <v>       0.22726360       0.47017216       0.19997018 </v>
   </varray>
  </structure>
  <varray name="forces" >
   <v>       0.03875727       0.04504643      -0.08378486 </v>
   <v>       0.15385353      -0.08704492      -0.12480387 </v>
   <v>      -0.33085363       0.15850099       0.17241783 </v>
   <v>       0.16611208       0.02760701       0.09961597 </v>
   <v>      -0.07940923      -0.12761936       0.18348251 </v>
   <v>       0.10133732       0.14728862      -0.03131843 </v>
   <v>      -0.11144994       0.19222560      -0.03077063 </v>
   <v>       0.20865494       0.03677936      -0.15326701 </v>
   <v>       0.14776705      -0.06528134       0.17079546 </v>
   <v>      -0.20821173      -0.02633748       0.21865026 </v>
   <v>       0.20587791      -0.09415213      -0.06196787 </v>
   <v>       0.08744326      -0.16976195       0.11679282 </v>
   <v>      -0.12570442       0.18652187      -0.19257376 </v>
   <v>       0.03063456       0.12049020       0.11198360 </v>
   <v>      -0.12930415       0.09632063       0.15301630 </v>
   <v>       0.17927909       0.03812782      -0.18227690 </v>
   <v>      -0.03921257      -0.07639993      -0.01761693 </v>
   <v>      -0.08742497      -0.11938136      -0.00646855 </v>
   <v>      -0.03152414      -0.03061327       0.05702777 </v>
   <v>      -0.16800077      -0.01294202       0.09177833 </v>
   <v>       0.14568738       0.09572756       0.08406409 </v>
   <v>      -0.04793770       0.08695060      -0.00736291 </v>
   <v>       0.20477129      -0.00938310      -0.08136062 </v>
   <v>       0.15353913      -0.02517531      -0.31874214 </v>
   <v>      -0.15015183      -0.02249120       0.24731082 </v>
   <v>      -0.06881248      -0.24688548      -0.16448223 </v>
   <v>      -0.01876180      -0.01151751      -0.03140110 </v>
   <v>      -0.11651620       0.10407048      -0.11754309 </v>
   <v>      -0.11043924      -0.21067080      -0.10119485 </v>
  </varray>
  <varray name="stress" >
   <v>       5.36373076       0.73922257       0.61584591 </v>
   <v>       0.73922250       3.77260297      -0.61875314 </v>
   <v>       0.61584592      -0.61875304       3.63118474 </v>
  </varray>
  <energy>
   <i name="e_fr_energy">   -330.19169163 </i>
   <i name="e_wo_entrp">   -330.18544102 </i>
   <i name="e_0_energy">     -0.01875181 </i>
  </energy>
  <time name="totalsc">  268.60  268.97</time>
 </calculation>
 <calculation>
  <scstep>
   <time name="dav">   18.69   18.71</time>
   <time name="total">   19.31   19.33</time>
   <energy>
    <i name="alphaZ">   1316.70869355 </i>
    <i name="ewald"> -11746.24152249 </i>
    <i name="hartreedc">  -2896.27696920 </i>
    <i name="XCdc">   -833.39402237 </i>
    <i name="pawpsdc">  21110.83505226 </i>
    <i name="pawaedc"> -19621.74185335 </i>
    <i name="eentropy">     -0.01782437 </i>
    <i name="bandstr">   -740.33752932 </i>
    <i name="atom">  13080.25727947 </i>
    <i name="e_fr_energy">   -330.20869584 </i>
    <i name="e_wo_entrp">   -330.19087147 </i>
    <i name="e_0_energy">   -330.20275438 </i>
   </energy>
  </scstep>
  <scstep>
   <time name="dav">   23.67   23.70</time>
   <time name="total">   24.29   24.32</time>
   <energy>
    <i name="e_fr_energy">   -330.25807591 </i>
    <i name="e_wo_entrp">   -330.23974787 </i>
    <i name="e_0_energy">   -330.25196656 </i>
   </energy>
  </scstep>
  <scstep>
   <time name="dav">   25.89   25.92</time>
   <time name="total">   26.51   26.54</time>
   <energy>
    <i name="e_fr_energy">   -330.26738692 </i>
    <i name="e_wo_entrp">   -330.25034305 </i>
    <i name="e_0_energy">   -330.26170563 </i>
   </energy>
  </scstep>
  <scstep>
   <time name="dav">   25.31   25.34</time>
   <time name="total">   25.94   25.98</time>
   <energy>
    <i name="e_fr_energy">   -330.24548092 </i>
    <i name="e_wo_entrp">   -330.22658582 </i>
    <i name="e_0_energy">   -330.23918255 </i>
   </energy>
  </scstep>
  <scstep>
   <time name="dav">   25.48   25.52</time>
   <time name="total">   26.10   26.15</time>
   <energy>
    <i name="e_fr_energy">   -330.23983894 </i>
    <i name="e_wo_entrp">   -330.22183758 </i>
    <i name="e_0_energy">   -330.23383849 </i>
   </energy>
  </scstep>
  <scstep>
   <time name="dav">   26.65   26.69</time>
   <time name="total">   27.27   27.31</time>
   <energy>
    <i name="e_fr_energy">   -330.23747176 </i>
    <i name="e_wo_entrp">   -330.21924771 </i>
    <i name="e_0_energy">   -330.23139708 </i>
   </energy>
  </scstep>
  <scstep>
   <time name="dav">   25.98   26.02</time>
   <time name="total">   26.60   26.65</time>
   <energy>
    <i name="e_fr_energy">   -330.23714616 </i>
    <i name="e_wo_entrp">   -330.21875314 </i>
    <i name="e_0_energy">   -330.23101515 </i>
   </energy>
  </scstep>
  <scstep>
   <time name="dav">   23.29   23.32</time>
   <time name="total">   23.91   23.94</time>
   <energy>
    <i name="e_fr_energy">   -330.23691039 </i>
    <i name="e_wo_entrp">   -330.21864692 </i>
    <i name="e_0_energy">   -330.23082257 </i>
   </energy>
  </scstep>
  <scstep>
   <time name="dav">   21.26   21.29</time>
[...]
       <r>    4.6422    1.0000 </r>
       <r>    4.6994    1.0000 </r>
       <r>    4.7258    1.0000 </r>
       <r>    4.7821    1.0000 </r>
       <r>    4.8168    1.0000 </r>
       <r>    4.8309    1.0000 </r>
       <r>    4.9165    1.0000 </r>
       <r>    4.9643    1.0000 </r>
       <r>    5.0092    1.0000 </r>
       <r>    5.0819    1.0000 </r>
       <r>    5.1484    1.0000 </r>
       <r>    5.2031    1.0000 </r>
       <r>    5.2733    1.0000 </r>
       <r>    5.3528    1.0000 </r>
       <r>    5.3815    1.0000 </r>
       <r>    5.3970    1.0000 </r>
       <r>    5.4363    1.0000 </r>
       <r>    5.5338    1.0000 </r>
       <r>    5.6557    1.0000 </r>
       <r>    5.6822    1.0000 </r>
       <r>    5.7177    1.0000 </r>
       <r>    5.7965    1.0000 </r>
       <r>    5.8469    1.0000 </r>
       <r>    5.9335    1.0000 </r>
       <r>    6.0086    1.0000 </r>
       <r>    6.0538    1.0000 </r>
       <r>    6.0946    1.0000 </r>
       <r>    6.1253    1.0000 </r>
       <r>    6.1746    1.0000 </r>
       <r>    6.2645    1.0005 </r>
       <r>    6.2966    1.0010 </r>
       <r>    6.3317    1.0021 </r>
       <r>    6.3613    1.0038 </r>
       <r>    6.4233    1.0109 </r>
       <r>    6.5015    1.0273 </r>
       <r>    6.5348    1.0337 </r>
       <r>    6.5977    1.0278 </r>
       <r>    6.6294    1.0056 </r>
       <r>    6.6868    0.9117 </r>
       <r>    6.7426    0.7437 </r>
       <r>    6.8057    0.4893 </r>
       <r>    6.8751    0.2163 </r>
       <r>    6.9978   -0.0221 </r>
       <r>    7.1327   -0.0209 </r>
       <r>    7.2051   -0.0078 </r>
       <r>    7.2679   -0.0025 </r>
       <r>    7.3659   -0.0003 </r>
       <r>    7.5155   -0.0000 </r>
       <r>    7.7696   -0.0000 </r>
       <r>    7.8820   -0.0000 </r>
       <r>    7.9221   -0.0000 </r>
       <r>    8.0783   -0.0000 </r>
       <r>    8.1590   -0.0000 </r>
       <r>    8.3109   -0.0000 </r>
       <r>    8.6017   -0.0000 </r>
       <r>    8.7094   -0.0000 </r>
       <r>    8.7950   -0.0000 </r>
       <r>    8.8605   -0.0000 </r>
       <r>    8.9344   -0.0000 </r>
       <r>    8.9917   -0.0000 </r>
       <r>    9.0584   -0.0000 </r>
      </set>
     </set>
    </set>
   </array>
  </eigenvalues>
  <separator name="orbital magnetization" >
   <v name="MAGDIPOLOUT">      0.00000000      0.00000000      0.00000000</v>
  </separator>
  <dos>
   <i name="efermi">      6.80319607 </i>
   <total>
    <array>
     <dimension dim="1">gridpoints</dimension>
     <dimension dim="2">spin</dimension>
     <field>energy</field>
     <field>total</field>
     <field>integrated</field>
     <set>
      <set comment="spin 1">
       <r>   -50.2313     0.0000     0.0000 </r>
       <r>   -50.0234     0.0000     0.0000 </r>
       <r>   -49.8156     0.0000     0.0000 </r>
       <r>   -49.6077     0.0000     0.0000 </r>
       <r>   -49.3998     0.0000     0.0000 </r>
       <r>   -49.1919    -0.0000    -0.0000 </r>
       <r>   -48.9841    -0.0000    -0.0000 </r>
       <r>   -48.7762    -0.0000    -0.0000 </r>
       <r>   -48.5683    -0.0000    -0.0000 </r>
       <r>   -48.3604    -0.0000    -0.0000 </r>
       <r>   -48.1526    -0.0000    -0.0000 </r>
       <r>   -47.9447    -0.0035    -0.0007 </r>
       <r>   -47.7368    -0.2366    -0.0499 </r>
       <r>   -47.5290    -0.2096    -0.0935 </r>
       <r>   -47.3211    14.7358     2.9697 </r>
       <r>   -47.1132    29.2111     9.0418 </r>
       <r>   -46.9053    14.1113    11.9752 </r>
       <r>   -46.6975     0.4057    12.0595 </r>
       <r>   -46.4896    -0.2797    12.0013 </r>
       <r>   -46.2817    -0.0065    12.0000 </r>
       <r>   -46.0739    -0.0000    12.0000 </r>
       <r>   -45.8660    -0.0000    12.0000 </r>
       <r>   -45.6581    -0.0000    12.0000 </r>
       <r>   -45.4502     0.0000    12.0000 </r>
       <r>   -45.2424     0.0000    12.0000 </r>
       <r>   -45.0345     0.0000    12.0000 </r>
       <r>   -44.8266     0.0000    12.0000 </r>
       <r>   -44.6188     0.0000    12.0000 </r>
       <r>   -44.4109     0.0000    12.0000 </r>
       <r>   -44.2030     0.0000    12.0000 </r>
       <r>   -43.9951     0.0000    12.0000 </r>
       <r>   -43.7873     0.0000    12.0000 </r>
       <r>   -43.5794     0.0000    12.0000 </r>
       <r>   -43.3715     0.0000    12.0000 </r>
       <r>   -43.1637     0.0000    12.0000 </r>
       <r>   -42.9558     0.0000    12.0000 </r>
       <r>   -42.7479     0.0000    12.0000 </r>
       <r>   -42.5400     0.0000    12.0000 </r>
       <r>   -42.3322     0.0000    12.0000 </r>
       <r>   -42.1243     0.0000    12.0000 </r>
       <r>   -41.9164     0.0000    12.0000 </r>
       <r>   -41.7086     0.0000    12.0000 </r>
       <r>   -41.5007     0.0000    12.0000 </r>
       <r>   -41.2928     0.0000    12.0000 </r>
       <r>   -41.0849     0.0000    12.0000 </r>
       <r>   -40.8771     0.0000    12.0000 </r>
       <r>   -40.6692     0.0000    12.0000 </r>
       <r>   -40.4613     0.0000    12.0000 </r>
       <r>   -40.2535     0.0000    12.0000 </r>
       <r>   -40.0456     0.0000    12.0000 </r>
       <r>   -39.8377     0.0000    12.0000 </r>
       <r>   -39.6298     0.0000    12.0000 </r>
       <r>   -39.4220     0.0000    12.0000 </r>
       <r>   -39.2141     0.0000    12.0000 </r>
       <r>   -39.0062     0.0000    12.0000 </r>
       <r>   -38.7984     0.0000    12.0000 </r>
       <r>   -38.5905     0.0000    12.0000 </r>
       <r>   -38.3826     0.0000    12.0000 </r>
       <r>   -38.1747     0.0000    12.0000 </r>
       <r>   -37.9669     0.0000    12.0000 </r>
       <r>   -37.7590     0.0000    12.0000 </r>
       <r>   -37.5511     0.0000    12.0000 </r>
       <r>   -37.3433     0.0000    12.0000 </r>
       <r>   -37.1354     0.0000    12.0000 </r>
       <r>   -36.9275     0.0000    12.0000 </r>
       <r>   -36.7196     0.0000    12.0000 </r>
       <r>   -36.5118     0.0000    12.0000 </r>
       <r>   -36.3039     0.0000    12.0000 </r>
       <r>   -36.0960     0.0000    12.0000 </r>
       <r>   -35.8882     0.0000    12.0000 </r>
       <r>   -35.6803     0.0000    12.0000 </r>
       <r>   -35.4724     0.0000    12.0000 </r>
       <r>   -35.2645     0.0000    12.0000 </r>
       <r>   -35.0567     0.0000    12.0000 </r>
       <r>   -34.8488     0.0000    12.0000 </r>
       <r>   -34.6409     0.0000    12.0000 </r>
       <r>   -34.4331     0.0000    12.0000 </r>
       <r>   -34.2252     0.0000    12.0000 </r>
       <r>   -34.0173     0.0000    12.0000 </r>
       <r>   -33.8094     0.0000    12.0000 </r>
       <r>   -33.6016     0.0000    12.0000 </r>
       <r>   -33.3937     0.0000    12.0000 </r>
       <r>   -33.1858     0.0000    12.0000 </r>
       <r>   -32.9780     0.0000    12.0000 </r>
       <r>   -32.7701     0.0000    12.0000 </r>
       <r>   -32.5622     0.0000    12.0000 </r>
       <r>   -32.3543     0.0000    12.0000 </r>
       <r>   -32.1465     0.0000    12.0000 </r>
       <r>   -31.9386     0.0000    12.0000 </r>
       <r>   -31.7307     0.0000    12.0000 </r>
       <r>   -31.5229     0.0000    12.0000 </r>
       <r>   -31.3150     0.0000    12.0000 </r>
       <r>   -31.1071     0.0000    12.0000 </r>
       <r>   -30.8992     0.0000    12.0000 </r>
       <r>   -30.6914     0.0000    12.0000 </r>
       <r>   -30.4835     0.0000    12.0000 </r>
       <r>   -30.2756     0.0000    12.0000 </r>
       <r>   -30.0678     0.0000    12.0000 </r>
       <r>   -29.8599     0.0000    12.0000 </r>
       <r>   -29.6520     0.0000    12.0000 </r>
       <r>   -29.4441     0.0000    12.0000 </r>
       <r>   -29.2363     0.0000    12.0000 </r>
       <r>   -29.0284     0.0000    12.0000 </r>
       <r>   -28.8205     0.0000    12.0000 </r>
       <r>   -28.6127     0.0000    12.0000 </r>
       <r>   -28.4048     0.0000    12.0000 </r>
       <r>   -28.1969     0.0000    12.0000 </r>
       <r>   -27.9890     0.0000    12.0000 </r>
       <r>   -27.7812     0.0000    12.0000 </r>
       <r>   -27.5733     0.0000    12.0000 </r>
       <r>   -27.3654     0.0000    12.0000 </r>
       <r>   -27.1576     0.0000    12.0000 </r>
       <r>   -26.9497     0.0000    12.0000 </r>
       <r>   -26.7418     0.0000    12.0000 </r>
       <r>   -26.5339     0.0000    12.0000 </r>
       <r>   -26.3261     0.0000    12.0000 </r>
       <r>   -26.1182     0.0000    12.0000 </r>
       <r>   -25.9103    -0.0000    12.0000 </r>
       <r>   -25.7025    -0.0000    12.0000 </r>
       <r>   -25.4946    -0.0000    12.0000 </r>
       <r>   -25.2867    -0.0000    12.0000 </r>
       <r>   -25.0788    -0.0000    12.0000 </r>
       <r>   -24.8710    -0.0000    12.0000 </r>
       <r>   -24.6631    -0.0011    11.9998 </r>
       <r>   -24.4552    -0.0632    11.9866 </r>
       <r>   -24.2474    -0.1027    11.9653 </r>
       <r>   -24.0395     3.6742    12.7290 </r>
       <r>   -23.8316    10.6929    14.9518 </r>
       <r>   -23.6237    21.3000    19.3794 </r>
       <r>   -23.4159    42.2853    28.1694 </r>
       <r>   -23.2080    53.4857    39.2875 </r>
       <r>   -23.0001    23.0761    44.0844 </r>
       <r>   -22.7923    14.7405    47.1485 </r>
       <r>   -22.5844     4.6398    48.1130 </r>
       <r>   -22.3765    -0.4989    48.0093 </r>
       <r>   -22.1686    -0.0443    48.0001 </r>
       <r>   -21.9608    -0.0003    48.0000 </r>
       <r>   -21.7529    -0.0000    48.0000 </r>
       <r>   -21.5450    -0.0000    48.0000 </r>
       <r>   -21.3372     0.0000    48.0000 </r>
       <r>   -21.1293     0.0000    48.0000 </r>
       <r>   -20.9214     0.0000    48.0000 </r>
       <r>   -20.7135     0.0000    48.0000 </r>
       <r>   -20.5057     0.0000    48.0000 </r>
       <r>   -20.2978     0.0000    48.0000 </r>
       <r>   -20.0899     0.0000    48.0000 </r>
       <r>   -19.8821     0.0000    48.0000 </r>
       <r>   -19.6742     0.0000    48.0000 </r>
       <r>   -19.4663     0.0000    48.0000 </r>
       <r>   -19.2584     0.0000    48.0000 </r>
       <r>   -19.0506     0.0000    48.0000 </r>
       <r>   -18.8427     0.0000    48.0000 </r>
       <r>   -18.6348     0.0000    48.0000 </r>
       <r>   -18.4270     0.0000    48.0000 </r>
       <r>   -18.2191     0.0000    48.0000 </r>
       <r>   -18.0112     0.0000    48.0000 </r>
       <r>   -17.8033     0.0000    48.0000 </r>
       <r>   -17.5955     0.0000    48.0000 </r>
       <r>   -17.3876     0.0000    48.0000 </r>
       <r>   -17.1797     0.0000    48.0000 </r>
       <r>   -16.9719     0.0000    48.0000 </r>
       <r>   -16.7640     0.0000    48.0000 </r>
       <r>   -16.5561     0.0000    48.0000 </r>
       <r>   -16.3482     0.0000    48.0000 </r>
       <r>   -16.1404     0.0000    48.0000 </r>
       <r>   -15.9325     0.0000    48.0000 </r>
       <r>   -15.7246     0.0000    48.0000 </r>
       <r>   -15.5168     0.0000    48.0000 </r>
       <r>   -15.3089     0.0000    48.0000 </r>
       <r>   -15.1010     0.0000    48.0000 </r>
       <r>   -14.8931     0.0000    48.0000 </r>
       <r>   -14.6853     0.0000    48.0000 </r>
       <r>   -14.4774     0.0000    48.0000 </r>
       <r>   -14.2695     0.0000    48.0000 </r>
       <r>   -14.0617     0.0000    48.0000 </r>
       <r>   -13.8538     0.0000    48.0000 </r>
       <r>   -13.6459     0.0000    48.0000 </r>
       <r>   -13.4380     0.0000    48.0000 </r>
       <r>   -13.2302     0.0000    48.0000 </r>
       <r>   -13.0223     0.0000    48.0000 </r>
       <r>   -12.8144     0.0000    48.0000 </r>
       <r>   -12.6066     0.0000    48.0000 </r>
       <r>   -12.3987     0.0000    48.0000 </r>
       <r>   -12.1908     0.0000    48.0000 </r>
       <r>   -11.9829     0.0000    48.0000 </r>
       <r>   -11.7751     0.0000    48.0000 </r>
       <r>   -11.5672     0.0000    48.0000 </r>
       <r>   -11.3593     0.0000    48.0000 </r>
       <r>   -11.1515     0.0000    48.0000 </r>
       <r>   -10.9436     0.0000    48.0000 </r>
       <r>   -10.7357     0.0000    48.0000 </r>
       <r>   -10.5278     0.0000    48.0000 </r>
       <r>   -10.3200     0.0000    48.0000 </r>
       <r>   -10.1121     0.0000    48.0000 </r>
       <r>    -9.9042     0.0000    48.0000 </r>
       <r>    -9.6964     0.0000    48.0000 </r>
       <r>    -9.4885     0.0000    48.0000 </r>
       <r>    -9.2806     0.0000    48.0000 </r>
       <r>    -9.0727     0.0000    48.0000 </r>
       <r>    -8.8649     0.0000    48.0000 </r>
       <r>    -8.6570     0.0000    48.0000 </r>
       <r>    -8.4491     0.0000    48.0000 </r>
       <r>    -8.2413     0.0000    48.0000 </r>
       <r>    -8.0334     0.0000    48.0000 </r>
       <r>    -7.8255     0.0000    48.0000 </r>
       <r>    -7.6176     0.0000    48.0000 </r>
       <r>    -7.4098     0.0000    48.0000 </r>
       <r>    -7.2019     0.0000    48.0000 </r>
       <r>    -6.9940     0.0000    48.0000 </r>
       <r>    -6.7862     0.0000    48.0000 </r>
       <r>    -6.5783     0.0000    48.0000 </r>
       <r>    -6.3704     0.0000    48.0000 </r>
       <r>    -6.1625     0.0000    48.0000 </r>
       <r>    -5.9547     0.0000    48.0000 </r>
       <r>    -5.7468     0.0000    48.0000 </r>
       <r>    -5.5389     0.0000    48.0000 </r>
       <r>    -5.3311     0.0000    48.0000 </r>
       <r>    -5.1232     0.0000    48.0000 </r>
       <r>    -4.9153     0.0000    48.0000 </r>
       <r>    -4.7074     0.0000    48.0000 </r>
       <r>    -4.4996     0.0000    48.0000 </r>
       <r>    -4.2917     0.0000    48.0000 </r>
       <r>    -4.0838     0.0000    48.0000 </r>
       <r>    -3.8760     0.0000    48.0000 </r>
       <r>    -3.6681     0.0000    48.0000 </r>
       <r>    -3.4602     0.0000    48.0000 </r>
       <r>    -3.2523     0.0000    48.0000 </r>
       <r>    -3.0445     0.0000    48.0000 </r>
       <r>    -2.8366     0.0000    48.0000 </r>
       <r>    -2.6287     0.0000    48.0000 </r>
       <r>    -2.4209     0.0000    48.0000 </r>
       <r>    -2.2130    -0.0000    48.0000 </r>
       <r>    -2.0051    -0.0000    48.0000 </r>
       <r>    -1.7972    -0.0000    48.0000 </r>
       <r>    -1.5894    -0.0000    48.0000 </r>
       <r>    -1.3815    -0.0000    48.0000 </r>
       <r>    -1.1736    -0.0000    48.0000 </r>
       <r>    -0.9658    -0.0003    47.9999 </r>
       <r>    -0.7579    -0.0083    47.9982 </r>
       <r>    -0.5500     0.0185    48.0021 </r>
       <r>    -0.3421     0.3701    48.0790 </r>
       <r>    -0.1343     1.0181    48.2906 </r>
       <r>     0.0736     1.7155    48.6472 </r>
       <r>     0.2815     1.8649    49.0349 </r>
       <r>     0.4893     1.6372    49.3752 </r>
       <r>     0.6972     2.7471    49.9463 </r>
       <r>     0.9051     3.3025    50.6328 </r>
       <r>     1.1130     3.0053    51.2575 </r>
       <r>     1.3208     3.1952    51.9217 </r>
       <r>     1.5287     4.4989    52.8569 </r>
       <r>     1.7366     4.1418    53.7178 </r>
       <r>     1.9445     5.2113    54.8011 </r>
       <r>     2.1523     6.8787    56.2310 </r>
       <r>     2.3602    10.2654    58.3649 </r>
       <r>     2.5681    15.9305    61.6764 </r>
       <r>     2.7759    20.2678    65.8895 </r>
       <r>     2.9838    23.8318    70.8434 </r>
       <r>     3.1917    27.8797    76.6388 </r>
       <r>     3.3996    28.1629    82.4931 </r>
       <r>     3.6074    29.0773    88.5374 </r>
       <r>     3.8153    30.3405    94.8444 </r>
       <r>     4.0232    29.2745   100.9297 </r>
       <r>     4.2310    27.8607   106.7211 </r>
       <r>     4.4389    25.3763   111.9962 </r>
       <r>     4.6468    30.0286   118.2382 </r>
       <r>     4.8547    38.0508   126.1479 </r>
       <r>     5.0625    38.7913   134.2115 </r>
       <r>     5.2704    39.0173   142.3221 </r>
       <r>     5.4783    36.3233   149.8727 </r>
       <r>     5.6861    35.8823   157.3316 </r>
       <r>     5.8940    37.6467   165.1573 </r>
       <r>     6.1019    37.1643   172.8826 </r>
       <r>     6.3098    38.6422   180.9153 </r>
       <r>     6.5176    38.6665   188.9529 </r>
       <r>     6.7255    35.6691   196.3675 </r>
       <r>     6.9334    32.2899   203.0797 </r>
       <r>     7.1412    25.0229   208.2812 </r>
       <r>     7.3491    20.3709   212.5157 </r>
       <r>     7.5570    17.3568   216.1237 </r>
       <r>     7.7649    15.0873   219.2599 </r>
       <r>     7.9727    14.9668   222.3711 </r>
       <r>     8.1806    18.4455   226.2054 </r>
       <r>     8.3885    21.0469   230.5805 </r>
       <r>     8.5963    19.5516   234.6447 </r>
       <r>     8.8042    13.7997   237.5132 </r>
       <r>     9.0121     7.6643   239.1064 </r>
       <r>     9.2200     3.6831   239.8720 </r>
       <r>     9.4278     0.6880   240.0151 </r>
       <r>     9.6357    -0.0606   240.0024 </r>
       <r>     9.8436    -0.0116   240.0000 </r>
       <r>    10.0514    -0.0001   240.0000 </r>
       <r>    10.2593    -0.0000   240.0000 </r>
       <r>    10.4672    -0.0000   240.0000 </r>
       <r>    10.6751    -0.0000   240.0000 </r>
       <r>    10.8829     0.0000   240.0000 </r>
       <r>    11.0908     0.0000   240.0000 </r>
       <r>    11.2987     0.0000   240.0000 </r>
       <r>    11.5065     0.0000   240.0000 </r>
       <r>    11.7144     0.0000   240.0000 </r>
       <r>    11.9223     0.0000   240.0000 </r>
       <r>    12.1302     0.0000   240.0000 </r>
      </set>
     </set>
    </array>
   </total>
  </dos>
 </calculation>
 <structure name="finalpos" >
  <crystal>
   <varray name="basis" >
    <v>      -3.17003315      -3.11702705      -3.15956371 </v>
    <v>       1.53156774       1.65057622      -7.93736106 </v>
    <v>       7.97785751      -7.96001782      -1.46474914 </v>
   </varray>
   <i name="volume">    478.46353286 </i>
   <varray name="rec_basis" >
    <v>      -0.13710390      -0.12765816      -0.05300167 </v>
    <v>       0.04302213       0.06238689      -0.10471168 </v>
    <v>       0.06260889      -0.06270234      -0.00095816 </v>
   </varray>
  </crystal>
  <varray name="positions" >
   <v>       0.95946511       0.93593584       0.39707717 </v>
   <v>       0.63086499       0.26748112       0.40251072 </v>
   <v>       0.49997982      -0.00767563      -0.01734590 </v>
   <v>      -0.00884000      -0.00003764       0.00372555 </v>
   <v>       0.11439647       0.18812547       0.79738283 </v>
   <v>       0.03509056       0.06819669       0.59634469 </v>
   <v>       0.89944585       0.79982960       0.20142395 </v>
   <v>       0.80254684       0.59540685       0.40046913 </v>
   <v>       0.73192743       0.46704422       0.20005209 </v>
   <v>       0.66488375       0.33865410      -0.00357064 </v>
   <v>       0.37131503       0.73407560       0.60996701 </v>
   <v>       0.13306792       0.27238333       0.40166863 </v>
   <v>       0.84210003       0.65982589       0.00210761 </v>
   <v>       0.92123571       0.86692865       0.79608233 </v>
   <v>       0.56343428       0.13207141       0.19458133 </v>
   <v>       0.40606102       0.79462462       0.19617509 </v>
   <v>       0.29970013       0.60483233       0.40421337 </v>
   <v>       0.86809799       0.73067585       0.59571678 </v>
   <v>       0.46478054       0.93006902       0.40797749 </v>
   <v>       0.17396608       0.33197117      -0.00015075 </v>
   <v>       0.26256694       0.53152544       0.79917369 </v>
   <v>       0.20043842       0.39412009       0.59792709 </v>
   <v>       0.06079365       0.14651311       0.20740738 </v>
   <v>       0.76178449       0.53973976       0.80105337 </v>
   <v>       0.69424174       0.41104690       0.60627985 </v>
   <v>       0.60609963       0.20664146       0.79594561 </v>
   <v>       0.53777353       0.06378422       0.60922422 </v>
   <v>       0.33882343       0.65994609      -0.00374788 </v>
   <v>       0.23062528       0.46959775       0.20032820 </v>
  </varray>
 </structure>
</modeling>
