SQS with 1 vacancy for VFE and VRV      
           1
    -3.190000   -3.190000   -3.190000
     1.595000    1.595000   -7.975000
     7.975000   -7.975000   -1.595000
   Nb   Mo   Ta   Ti   W 
   6   6   5   6   6
Direct configuration=     1
   0.96666667  0.93333333  0.40000000
   0.63333333  0.26666667  0.40000000
   0.50000000  0.00000000  0.00000000
   0.00000000  0.00000000  0.00000000
   0.10000000  0.20000000  0.80000000
   0.03333333  0.06666667  0.60000000
   0.90000000  0.80000000  0.20000000
   0.80000000  0.60000000  0.40000000
   0.73333333  0.46666667  0.20000000
   0.66666667  0.33333333  0.00000000
   0.36666667  0.73333333  0.60000000
   0.13333333  0.26666667  0.40000000
   0.83333333  0.66666667  0.00000000
   0.93333333  0.86666667  0.80000000
   0.56666667  0.13333333  0.20000000
   0.40000000  0.80000000  0.20000000
   0.30000000  0.60000000  0.40000000
   0.86666667  0.73333333  0.60000000
   0.46666667  0.93333333  0.40000000
   0.16666667  0.33333333  0.00000000
   0.26666667  0.53333333  0.80000000
   0.20000000  0.40000000  0.60000000
   0.06666667  0.13333333  0.20000000
   0.76666667  0.53333333  0.80000000
   0.70000000  0.40000000  0.60000000
   0.60000000  0.20000000  0.80000000
   0.53333333  0.06666667  0.60000000
   0.33333333  0.66666667  0.00000000
   0.23333333  0.46666667  0.20000000
SQS with 1 vacancy for VFE and VRV      
           1
    -3.125841   -3.113684   -3.132452
     1.545946    1.580418   -7.837732
     7.850426   -7.852724   -1.533534
   Nb   Mo   Ta   Ti   W 
   6   6   5   6   6
Direct configuration=     2
   0.96410209  0.93337695  0.39868552
   0.63294317  0.26621812  0.40028884
   0.49908680 -0.00075584 -0.00431884
  -0.00245528  0.00016896  0.00138219
   0.10352391  0.19767037  0.79894646
   0.03510668  0.06656484  0.59825060
   0.90027553  0.79944487  0.20157710
   0.80233695  0.59628961  0.39953988
   0.73345388  0.46722488  0.19928006
   0.66477722  0.33752947 -0.00112535
   0.36841840  0.73242810  0.60188478
   0.13331271  0.26946634  0.39955525
   0.83556245  0.66378053  0.00160250
   0.92982489  0.86791558  0.79953274
   0.56625894  0.13390751  0.19849121
   0.40390869  0.79577065  0.19806722
   0.29973731  0.60153180  0.40133317
   0.86470893  0.73303789  0.59850049
   0.46564869  0.93213781  0.40340581
   0.16863142  0.33427359  0.00069778
   0.26686371  0.53238261  0.79934114
   0.20048872  0.39681828  0.59926448
   0.06699366  0.13701173  0.20179480
   0.76582412  0.53319777  0.80028936
   0.69697468  0.40585088  0.60250446
   0.60065208  0.20244592  0.79801764
   0.53511205  0.06575543  0.60374414
   0.33412584  0.66348953 -0.00050295
   0.23046843  0.46839915  0.19996955
SQS with 1 vacancy for VFE and VRV      
           1
    -3.156922   -3.150654   -3.160330
     1.569710    1.587482   -7.904230
     7.910775   -7.911959   -1.563311
   Nb   Mo   Ta   Ti   W 
   6   6   5   6   6
Direct configuration=     3
   0.96537260  0.93335618  0.39933325
   0.63313576  0.26643839  0.40014735
   0.49954183 -0.00037533 -0.00219255
  -0.00124098  0.00008113  0.00070282
   0.10177896  0.19882349  0.79946604
   0.03423026  0.06661980  0.59911084
   0.90013750  0.79971561  0.20080157
   0.80117812  0.59812137  0.39976941
   0.73339516  0.46695121  0.19963366
   0.66571616  0.33546172 -0.00057543
   0.36754920  0.73287190  0.60095767
   0.13332514  0.26808703  0.39977108
   0.83445587  0.66520178  0.00081625
   0.93156270  0.86729826  0.79976265
   0.56646236  0.13362715  0.19923316
   0.40197273  0.79786231  0.19902135
   0.29986727  0.60077382  0.40067561
   0.86567899  0.73318508  0.59923941
   0.46614901  0.93271968  0.40173163
   0.16765897  0.33381012  0.00035266
   0.26676608  0.53285274  0.79966629
   0.20024530  0.39838861  0.59962966
   0.06683279  0.13519504  0.20090755
   0.76624084  0.53326341  0.80014745
   0.69847400  0.40295936  0.60126694
   0.60033255  0.20124454  0.79899018
   0.53422798  0.06619852  0.60190211
   0.33373187  0.66505736 -0.00025234
   0.23188767  0.46754305  0.19998375
SQS with 1 vacancy for VFE and VRV      
           1
    -3.156623   -3.136236   -3.167787
     1.549146    1.607331   -7.929516
     7.951762   -7.956101   -1.528588
   Nb   Mo   Ta   Ti   W 
   6   6   5   6   6
Direct configuration=     4
   0.96214982  0.93367379  0.39777914
   0.63266259  0.26605868  0.40052359
   0.49817833 -0.00158364 -0.00795980
  -0.00400801  0.00055070  0.00225810
   0.10723662  0.19491726  0.79829657
   0.03650015  0.06646600  0.59718089
   0.90012997  0.79941175  0.20244284
   0.80353825  0.59429809  0.39954997
   0.73368104  0.46707881  0.19892986
   0.66365298  0.34001662 -0.00193883
   0.36975287  0.73210048  0.60389412
   0.13334352  0.27097958  0.39949518
   0.83724161  0.66214706  0.00233016
   0.92737096  0.86844820  0.79897392
   0.56586654  0.13395806  0.19746515
   0.40621800  0.79377264  0.19715490
   0.29971451  0.60225442  0.40248331
   0.86344351  0.73268837  0.59751627
   0.46514339  0.93116387  0.40568742
   0.17020798  0.33467974  0.00103981
   0.26674333  0.53178611  0.79879696
   0.20049147  0.39504895  0.59871281
   0.06707477  0.13973625  0.20309062
   0.76442135  0.53448834  0.80042508
   0.69502542  0.40957673  0.60402981
   0.60104239  0.20424351  0.79685419
   0.53608838  0.06448526  0.60667585
   0.33496195  0.66158367 -0.00166194
   0.22879299  0.46930403  0.19997407
SQS with 1 vacancy for VFE and VRV      
           1
    -3.156476   -3.129127   -3.171463
     1.539008    1.617117   -7.941982
     7.971970   -7.977862   -1.511469
   Nb   Mo   Ta   Ti   W 
   6   6   5   6   6
Direct configuration=     5
   0.96055694  0.93382903  0.39701603
   0.63242961  0.26587331  0.40070741
   0.49750085 -0.00218968 -0.01079003
  -0.00537316  0.00078741  0.00302015
   0.10993335  0.19299002  0.79772060
   0.03761925  0.06638406  0.59623529
   0.90012799  0.79926619  0.20324730
   0.80470642  0.59241641  0.39943863
   0.73382144  0.46713966  0.19858501
   0.66262940  0.34225401 -0.00260264
   0.37084419  0.73172623  0.60533409
   0.13335002  0.27240066  0.39936350
   0.83862088  0.66064676  0.00306995
   0.92529969  0.86901511  0.79858675
   0.56557049  0.13411714  0.19659831
   0.40831564  0.79175465  0.19623638
   0.29963954  0.60298645  0.40337154
   0.86233860  0.73244214  0.59666970
   0.46465174  0.93040912  0.40762487
   0.17146644  0.33510662  0.00137896
   0.26673216  0.53125986  0.79836933
   0.20061486  0.39340513  0.59825915
   0.06719257  0.14197315  0.20416692
   0.76352226  0.53509257  0.80056196
   0.69331991  0.41283853  0.60539140
   0.60138851  0.20571203  0.79581079
   0.53701266  0.06365259  0.60901545
   0.33557081  0.65987201 -0.00235697
   0.22726360  0.47017216  0.19997018
SQS with 1 vacancy for VFE and VRV      
           1
    -3.166911   -3.134312   -3.177567
     1.540083    1.624239   -7.957658
     7.992010   -7.991844   -1.507341
   Nb   Mo   Ta   Ti   W 
   6   6   5   6   6
Direct configuration=     6
   0.96005578  0.93448215  0.39691276
   0.63223550  0.26653315  0.40145427
   0.49820019 -0.00332862 -0.01258486
  -0.00704213  0.00074002  0.00351958
   0.11108111  0.19130241  0.79779380
   0.03625989  0.06718294  0.59599117
   0.89976617  0.79975277  0.20242942
   0.80362778  0.59351056  0.39994586
   0.73283274  0.46639771  0.19917971
   0.66349315  0.34090457 -0.00322993
   0.37034412  0.73213529  0.60639957
   0.13351667  0.27164634  0.40011636
   0.83895313  0.66174380  0.00222359
   0.92384396  0.86894356  0.79827023
   0.56541480  0.13339110  0.19581866
   0.40760137  0.79292205  0.19656040
   0.30039975  0.60284805  0.40358461
   0.86353270  0.73190745  0.59666889
   0.46484658  0.92988066  0.40784089
   0.17256422  0.33431020  0.00094988
   0.26497580  0.53136586  0.79846828
   0.20043265  0.39341733  0.59780312
   0.06611984  0.14302979  0.20493453
   0.76336490  0.53700060  0.80112281
   0.69362793  0.41159380  0.60515667
   0.60380167  0.20582007  0.79623037
   0.53739147  0.06364242  0.60926094
   0.33606858  0.66033931 -0.00309432
   0.22935633  0.46991799  0.20027273
SQS with 1 vacancy for VFE and VRV      
           1
    -3.168613   -3.135157   -3.178563
     1.540258    1.625401   -7.960216
     7.995280   -7.994125   -1.506667
   Nb   Mo   Ta   Ti   W 
   6   6   5   6   6
Direct configuration=     7
   0.95997422  0.93458846  0.39689596
   0.63220408  0.26664062  0.40157589
   0.49831362 -0.00351415 -0.01287710
  -0.00731366  0.00073231  0.00360080
   0.11126786  0.19102770  0.79780568
   0.03603863  0.06731295  0.59595140
   0.89970714  0.79983192  0.20229628
   0.80345236  0.59368870  0.40002845
   0.73267192  0.46627694  0.19927643
   0.66363356  0.34068485 -0.00333209
   0.37026295  0.73220195  0.60657303
   0.13354391  0.27152360  0.40023889
   0.83900708  0.66192234  0.00208588
   0.92360698  0.86893185  0.79821862
   0.56538928  0.13327284  0.19569169
   0.40748523  0.79311211  0.19661319
   0.30052352  0.60282555  0.40361933
   0.86372702  0.73182043  0.59666879
   0.46487832  0.92979464  0.40787604
   0.17274277  0.33418054  0.00088004
   0.26468997  0.53138309  0.79848431
   0.20040290  0.39341928  0.59772886
   0.06594544  0.14320184  0.20505950
   0.76333948  0.53731126  0.80121422
   0.69367797  0.41139115  0.60511840
   0.60419451  0.20583774  0.79629881
   0.53745318  0.06364080  0.60930093
   0.33614947  0.66041534 -0.00321430
   0.22969698  0.46987668  0.20032208
SQS with 1 vacancy for VFE and VRV      
           1
    -3.166220   -3.129107   -3.172911
     1.536936    1.625830   -7.947425
     7.985687   -7.979756   -1.499401
   Nb   Mo   Ta   Ti   W 
   6   6   5   6   6
Direct configuration=     8
   0.95967981  0.93498797  0.39683657
   0.63202911  0.26696572  0.40202428
   0.49872657 -0.00431004 -0.01403376
  -0.00829222  0.00067429  0.00391589
   0.11210925  0.18997411  0.79782848
   0.03522949  0.06778217  0.59585048
   0.89954812  0.80002121  0.20179638
   0.80288703  0.59433155  0.40030626
   0.73216004  0.46604958  0.19960572
   0.66420041  0.33992347 -0.00368918
   0.37003354  0.73240916  0.60724306
   0.13364025  0.27115821  0.40066604
   0.83928744  0.66235043  0.00169214
   0.92267887  0.86890801  0.79789387
   0.56530234  0.13278869  0.19526543
   0.40707511  0.79377434  0.19675891
   0.30081390  0.60289432  0.40373690
   0.86459246  0.73147474  0.59665126
   0.46498773  0.92948437  0.40799575
   0.17335726  0.33371473  0.00061155
   0.26361399  0.53145982  0.79855324
   0.20031164  0.39342328  0.59747383
   0.06504979  0.14396406  0.20562994
   0.76313663  0.53841774  0.80149484
   0.69389464  0.41069950  0.60510158
   0.60556733  0.20594673  0.79647536
   0.53763568  0.06369301  0.60942670
   0.33659934  0.66065936 -0.00357336
   0.23081115  0.46971276  0.20046187
SQS with 1 vacancy for VFE and VRV      
           1
    -3.164520   -3.124808   -3.168894
     1.534575    1.626134   -7.938335
     7.978870   -7.969544   -1.494237
   Nb   Mo   Ta   Ti   W 
   6   6   5   6   6
Direct configuration=     9
   0.95947032  0.93527228  0.39679431
   0.63190493  0.26719717  0.40234345
   0.49901956 -0.00487668 -0.01485709
  -0.00898845  0.00063297  0.00413999
   0.11270786  0.18922434  0.79784467
   0.03465367  0.06811605  0.59577860
   0.89943466  0.80015582  0.20144058
   0.80248500  0.59478908  0.40050400
   0.73179592  0.46588779  0.19983997
   0.66460345  0.33938156 -0.00394338
   0.36987073  0.73255675  0.60771995
   0.13370902  0.27089825  0.40097001
   0.83948679  0.66265506  0.00141201
   0.92201816  0.86889091  0.79766257
   0.56524010  0.13244402  0.19496194
   0.40678346  0.79424566  0.19686267
   0.30102064  0.60294331  0.40382063
   0.86520829  0.73122878  0.59663886
   0.46506562  0.92926358  0.40808092
   0.17379432  0.33338320  0.00042047
   0.26284830  0.53151436  0.79860214
   0.20024652  0.39342607  0.59729229
   0.06441289  0.14450659  0.20603594
   0.76299266  0.53920528  0.80169472
   0.69404869  0.41020726  0.60508952
   0.60654447  0.20602444  0.79660127
   0.53776565  0.06373021  0.60951625
   0.33691932  0.66083300 -0.00382881
   0.23160412  0.46959621  0.20056153
SQS with 1 vacancy for VFE and VRV      
           1
    -3.164417   -3.123215   -3.167393
     1.534689    1.627976   -7.937373
     7.978655   -7.967196   -1.491883
   Nb   Mo   Ta   Ti   W 
   6   6   5   6   6
Direct configuration=    10
   0.95943535  0.93532047  0.39682149
   0.63178184  0.26707436  0.40232158
   0.49890091 -0.00514989 -0.01513552
  -0.00886792  0.00061143  0.00414474
   0.11317564  0.18897987  0.79780193
   0.03480780  0.06802973  0.59586707
   0.89948942  0.80002112  0.20143307
   0.80258717  0.59482256  0.40048909
   0.73194353  0.46619365  0.19981360
   0.66474810  0.33940448 -0.00390648
   0.36996091  0.73260550  0.60796685
   0.13373584  0.27102842  0.40099276
   0.83978071  0.66224806  0.00157142
   0.92197792  0.86874102  0.79739277
   0.56508044  0.13238462  0.19496118
   0.40672119  0.79425735  0.19677071
   0.30068324  0.60325583  0.40385547
   0.86551923  0.73114900  0.59658334
   0.46505070  0.92925814  0.40810670
   0.17379745  0.33333829  0.00035389
   0.26277302  0.53153494  0.79860279
   0.20022672  0.39345093  0.59735345
   0.06399096  0.14477289  0.20625879
   0.76267527  0.53936824  0.80158857
   0.69409542  0.41031725  0.60530665
   0.60637848  0.20622100  0.79648620
   0.53764021  0.06370238  0.60955288
   0.33717490  0.66083011 -0.00384138
   0.23140222  0.46956156  0.20048642
SQS with 1 vacancy for VFE and VRV      
           1
    -3.164108   -3.118435   -3.162890
     1.535033    1.633502   -7.934488
     7.978011   -7.960154   -1.484819
   Nb   Mo   Ta   Ti   W 
   6   6   5   6   6
Direct configuration=    11
   0.95933048  0.93546504  0.39690303
   0.63141230  0.26670592  0.40225588
   0.49854425 -0.00596963 -0.01597106
  -0.00850627  0.00054684  0.00415903
   0.11457913  0.18824655  0.79767373
   0.03527035  0.06777083  0.59613255
   0.89965361  0.79961704  0.20141050
   0.80289381  0.59492301  0.40044437
   0.73238674  0.46711122  0.19973463
   0.66518223  0.33947326 -0.00379569
   0.37023186  0.73275185  0.60870769
   0.13381646  0.27141893  0.40106105
   0.84066256  0.66102716  0.00204966
   0.92185673  0.86829124  0.79658318
   0.56460129  0.13220638  0.19495881
   0.40653424  0.79429240  0.19649479
   0.29967105  0.60419333  0.40395999
   0.86645219  0.73090968  0.59641679
   0.46500595  0.92924183  0.40818408
   0.17380673  0.33320356  0.00015410
   0.26254714  0.53159666  0.79860470
   0.20016740  0.39352553  0.59753695
   0.06272528  0.14557179  0.20692740
   0.76172286  0.53985705  0.80127002
   0.69423602  0.41064729  0.60595818
   0.60588041  0.20681062  0.79614098
   0.53726381  0.06361888  0.60966273
   0.33794184  0.66082148 -0.00387903
   0.23079623  0.46945757  0.20026099
SQS with 1 vacancy for VFE and VRV      
           1
    -3.168181   -3.120724   -3.164835
     1.536376    1.639136   -7.943106
     7.986052   -7.967445   -1.482075
   Nb   Mo   Ta   Ti   W 
   6   6   5   6   6
Direct configuration=    12
   0.95929991  0.93553421  0.39697473
   0.63126059  0.26683566  0.40224316
   0.49878995 -0.00641379 -0.01633135
  -0.00856437  0.00046640  0.00406033
   0.11488229  0.18803767  0.79759840
   0.03545039  0.06771786  0.59622037
   0.89968616  0.79958805  0.20145777
   0.80283147  0.59492952  0.40043286
   0.73243351  0.46725444  0.19980825
   0.66523773  0.33944783 -0.00371206
   0.37043114  0.73294231  0.60906653
   0.13366591  0.27164529  0.40117348
   0.84110797  0.66064598  0.00209899
   0.92179557  0.86795492  0.79638664
   0.56426106  0.13213607  0.19490021
   0.40635537  0.79435583  0.19639297
   0.29960804  0.60435748  0.40403523
   0.86689446  0.73078833  0.59625517
   0.46497649  0.92933928  0.40817102
   0.17382338  0.33301789  0.00006003
   0.26248081  0.53165625  0.79865089
   0.20022576  0.39366121  0.59764710
   0.06218369  0.14591339  0.20715968
   0.76139034  0.53999885  0.80113776
   0.69422852  0.41082415  0.60614082
   0.60582746  0.20694976  0.79602995
   0.53720447  0.06354842  0.60964821
   0.33821270  0.66070958 -0.00389515
   0.23068591  0.46949049  0.20018801
SQS with 1 vacancy for VFE and VRV      
           1
    -3.167254   -3.120204   -3.164393
     1.536070    1.637854   -7.941145
     7.984223   -7.965786   -1.482699
   Nb   Mo   Ta   Ti   W 
   6   6   5   6   6
Direct configuration=    13
   0.95930684  0.93551850  0.39695843
   0.63129506  0.26680619  0.40224605
   0.49873418 -0.00631286 -0.01624945
  -0.00855115  0.00048468  0.00408277
   0.11481342  0.18808512  0.79761552
   0.03540947  0.06772988  0.59620041
   0.89967876  0.79959463  0.20144703
   0.80284563  0.59492804  0.40043548
   0.73242286  0.46722190  0.19979151
   0.66522511  0.33945360 -0.00373106
   0.37038581  0.73289901  0.60898497
   0.13370010  0.27159386  0.40114792
   0.84100678  0.66073255  0.00208779
   0.92180951  0.86803134  0.79643132
   0.56433839  0.13215206  0.19491354
   0.40639602  0.79434144  0.19641611
   0.29962233  0.60432018  0.40401813
   0.86679398  0.73081590  0.59629190
   0.46498318  0.92931714  0.40817398
   0.17381962  0.33306008  0.00008141
   0.26249587  0.53164271  0.79864039
   0.20021247  0.39363038  0.59762206
   0.06230672  0.14583578  0.20710689
   0.76146590  0.53996666  0.80116781
   0.69423020  0.41078396  0.60609930
   0.60583949  0.20691816  0.79605517
   0.53721797  0.06356443  0.60965152
   0.33815116  0.66073499 -0.00389148
   0.23071098  0.46948302  0.20020459
SQS with 1 vacancy for VFE and VRV      
           1
    -3.168031   -3.119627   -3.163314
     1.535053    1.641391   -7.940829
     7.982523   -7.964681   -1.478170
   Nb   Mo   Ta   Ti   W 
   6   6   5   6   6
Direct configuration=    14
   0.95928965  0.93558218  0.39700832
   0.63118116  0.26709693  0.40227373
   0.49920925 -0.00668782 -0.01650714
  -0.00877810  0.00036431  0.00395303
   0.11475961  0.18804743  0.79754076
   0.03543474  0.06778174  0.59623733
   0.89966409  0.79967106  0.20148886
   0.80268728  0.59490233  0.40042246
   0.73229665  0.46716187  0.19990976
   0.66513914  0.33938189 -0.00367222
   0.37059559  0.73310468  0.60925776
   0.13344493  0.27182455  0.40128990
   0.84137720  0.66055520  0.00201345
   0.92168416  0.86771968  0.79640638
   0.56407081  0.13212137  0.19483589
   0.40625720  0.79440512  0.19632997
   0.29983074  0.60431300  0.40408874
   0.86713363  0.73072919  0.59612776
   0.46494337  0.92946070  0.40813474
   0.17385750  0.33282844  0.00001085
   0.26248144  0.53168842  0.79873857
   0.20032214  0.39375332  0.59770920
   0.06192347  0.14608038  0.20722039
   0.76135114  0.53997121  0.80110545
   0.69416394  0.41092436  0.60616808
   0.60597735  0.20689433  0.79599355
   0.53730354  0.06355082  0.60960247
   0.33830916  0.66054085 -0.00387071
   0.23075589  0.46956582  0.20018267
SQS with 1 vacancy for VFE and VRV      
           1
    -3.170363   -3.117898   -3.160078
     1.532000    1.652002   -7.939879
     7.977425   -7.961367   -1.464583
   Nb   Mo   Ta   Ti   W 
   6   6   5   6   6
Direct configuration=    15
   0.95923814  0.93577326  0.39715805
   0.63083978  0.26796904  0.40235702
   0.50063401 -0.00781277 -0.01728052
  -0.00945914  0.00000300  0.00356361
   0.11459810  0.18793426  0.79731639
   0.03551062  0.06793736  0.59634816
   0.89962017  0.79990035  0.20161443
   0.80221219  0.59482512  0.40038333
   0.73191800  0.46698195  0.20026449
   0.66488115  0.33916685 -0.00349575
   0.37122526  0.73372206  0.61007650
   0.13267971  0.27251662  0.40171605
   0.84248828  0.66002324  0.00179033
   0.92130778  0.86678476  0.79633124
   0.56326796  0.13202914  0.19460279
   0.40584076  0.79459599  0.19607153
   0.30045600  0.60429161  0.40430068
   0.86815246  0.73046896  0.59563526
   0.46482408  0.92989123  0.40801712
   0.17397087  0.33213353 -0.00020108
   0.26243822  0.53182567  0.79903318
   0.20065132  0.39412225  0.59797083
   0.06077397  0.14681411  0.20756106
   0.76100684  0.53998471  0.80091830
   0.69396536  0.41134556  0.60637455
   0.60639088  0.20682281  0.79580865
   0.53756023  0.06350994  0.60945533
   0.33878300  0.65995857 -0.00380848
   0.23089068  0.46981417  0.20011696
SQS with 1 vacancy for VFE and VRV      
           1
    -3.168709   -3.115884   -3.158417
     1.530994    1.650228   -7.934800
     7.974205   -7.956889   -1.464103
   Nb   Mo   Ta   Ti   W 
   6   6   5   6   6
Direct configuration=    16
   0.95937987  0.93586524  0.39710903
   0.63085529  0.26762625  0.40246696
   0.50019491 -0.00769749 -0.01731862
  -0.00905842  0.00000248  0.00367908
   0.11448895  0.18804999  0.79736731
   0.03521694  0.06808414  0.59634525
   0.89950013  0.79984508  0.20148839
   0.80247625  0.59518026  0.40042890
   0.73194178  0.46704604  0.20010358
   0.66487869  0.33885518 -0.00355421
   0.37128230  0.73392109  0.61000683
   0.13292538  0.27243693  0.40167918
   0.84227114  0.65988193  0.00200467
   0.92127563  0.86687954  0.79616153
   0.56337465  0.13207366  0.19458733
   0.40602748  0.79460294  0.19613164
   0.29990644  0.60464601  0.40423218
   0.86810901  0.73058610  0.59569240
   0.46477989  0.92999835  0.40800070
   0.17397732  0.33204158 -0.00017377
   0.26247887  0.53164542  0.79913395
   0.20052973  0.39410010  0.59794577
   0.06075586  0.14664737  0.20747114
   0.76148780  0.53983528  0.80099789
   0.69414986  0.41114422  0.60632528
   0.60620007  0.20671929  0.79590123
   0.53772829  0.06368313  0.60931381
   0.33882312  0.65995629 -0.00377294
   0.23070945  0.46967693  0.20024554
SQS with 1 vacancy for VFE and VRV      
           1
    -3.168934   -3.116158   -3.158643
     1.531131    1.650470   -7.935492
     7.974644   -7.957499   -1.464168
   Nb   Mo   Ta   Ti   W 
   6   6   5   6   6
Direct configuration=    17
   0.95936055  0.93585270  0.39711571
   0.63085317  0.26767300  0.40245197
   0.50025479 -0.00771321 -0.01731342
  -0.00911307  0.00000255  0.00366334
   0.11450383  0.18803420  0.79736037
   0.03525699  0.06806412  0.59634565
   0.89951650  0.79985262  0.20150557
   0.80244025  0.59513183  0.40042269
   0.73193854  0.46703730  0.20012552
   0.66487902  0.33889769 -0.00354624
   0.37127452  0.73389395  0.61001633
   0.13289188  0.27244780  0.40168421
   0.84230075  0.65990120  0.00197544
   0.92128002  0.86686662  0.79618467
   0.56336010  0.13206759  0.19458944
   0.40600202  0.79460200  0.19612344
   0.29998139  0.60459767  0.40424152
   0.86811494  0.73057012  0.59568461
   0.46478592  0.92998374  0.40800294
   0.17397644  0.33205412 -0.00017749
   0.26247332  0.53167000  0.79912021
   0.20054631  0.39410312  0.59794919
   0.06075833  0.14667011  0.20748340
   0.76142221  0.53985566  0.80098703
   0.69412470  0.41117168  0.60633199
   0.60622608  0.20673341  0.79588861
   0.53770538  0.06365951  0.60933311
   0.33881765  0.65995660 -0.00377779
   0.23073416  0.46969565  0.20022801
SQS with 1 vacancy for VFE and VRV      
           1
    -3.170291   -3.117231   -3.159779
     1.531670    1.650601   -7.937799
     7.978610   -7.960608   -1.464885
   Nb   Mo   Ta   Ti   W 
   6   6   5   6   6
Direct configuration=    18
   0.95948959  0.93595532  0.39706814
   0.63086776  0.26743618  0.40252448
   0.49991542 -0.00766682 -0.01735351
  -0.00877605 -0.00004705  0.00374012
   0.11437133  0.18814684  0.79738809
   0.03505158  0.06822774  0.59634447
   0.89942930  0.79982421  0.20140483
   0.80257180  0.59547126  0.40048000
   0.73192482  0.46704584  0.20003490
   0.66488486  0.33859706 -0.00357635
   0.37132452  0.73411814  0.60995547
   0.13310914  0.27236824  0.40166498
   0.84205304  0.65980825  0.00213856
   0.92122533  0.86694318  0.79605836
   0.56345166  0.13207231  0.19457943
   0.40607484  0.79462992  0.19618718
   0.29963426  0.60488729  0.40420677
   0.86809402  0.73070062  0.59572431
   0.46477927  0.93008900  0.40797153
   0.17396366  0.33195174 -0.00014449
   0.26258887  0.53149159  0.79918621
   0.20041315  0.39412406  0.59792191
   0.06080192  0.14647634  0.20738959
   0.76186933  0.53971262  0.80106891
   0.69426915  0.41101767  0.60626765
   0.60607003  0.20661993  0.79595896
   0.53778949  0.06381342  0.60919873
   0.33882479  0.65994363 -0.00374088
   0.23059978  0.46957482  0.20035166
SQS with 1 vacancy for VFE and VRV      
           1
    -3.170033   -3.117027   -3.159564
     1.531568    1.650576   -7.937361
     7.977858   -7.960018   -1.464749
   Nb   Mo   Ta   Ti   W 
   6   6   5   6   6
Direct configuration=    19
   0.95946511  0.93593584  0.39707717
   0.63086499  0.26748112  0.40251072
   0.49997982 -0.00767563 -0.01734590
  -0.00884000 -0.00003764  0.00372555
   0.11439647  0.18812547  0.79738283
   0.03509056  0.06819669  0.59634469
   0.89944585  0.79982960  0.20142395
   0.80254684  0.59540685  0.40046913
   0.73192743  0.46704422  0.20005209
   0.66488375  0.33865410 -0.00357064
   0.37131503  0.73407560  0.60996701
   0.13306792  0.27238333  0.40166863
   0.84210003  0.65982589  0.00210761
   0.92123571  0.86692865  0.79608233
   0.56343428  0.13207141  0.19458133
   0.40606102  0.79462462  0.19617509
   0.29970013  0.60483233  0.40421337
   0.86809799  0.73067585  0.59571678
   0.46478054  0.93006902  0.40797749
   0.17396608  0.33197117 -0.00015075
   0.26256694  0.53152544  0.79917369
   0.20043842  0.39412009  0.59792709
   0.06079365  0.14651311  0.20740738
   0.76178449  0.53973976  0.80105337
   0.69424174  0.41104690  0.60627985
   0.60609963  0.20664146  0.79594561
   0.53777353  0.06378422  0.60922422
   0.33882343  0.65994609 -0.00374788
   0.23062528  0.46959775  0.20032820
