  29  29   0   0
  0.1679057E+02  0.5525242E-09  0.8287863E-09  0.1139058E-08  0.5000000E-15
  1.000000000000000E-004
  CAR 
 SQS with 1 vacancy for VFE and VRV      
     12.04972371    -50.50084034  301      6.58600296      1.00000000
    -50.501  0.0000E+00  0.0000E+00
    -50.292  0.0000E+00  0.0000E+00
    -50.084  0.0000E+00  0.0000E+00
    -49.875  0.0000E+00  0.0000E+00
    -49.667  0.0000E+00  0.0000E+00
    -49.458 -0.7581E-35 -0.1581E-35
    -49.250 -0.3215E-27 -0.6703E-28
    -49.041 -0.1524E-20 -0.3178E-21
    -48.833 -0.7769E-15 -0.1620E-15
    -48.624 -0.4471E-10 -0.9322E-11
    -48.416 -0.2743E-06 -0.5719E-07
    -48.207 -0.1708E-03 -0.3568E-04
    -47.999 -0.8976E-02 -0.1907E-02
    -47.790  0.1675E-01  0.1585E-02
    -47.582  0.4123E+00  0.8754E-01
    -47.373  0.8887E+00  0.2728E+00
    -47.165  0.9249E+00  0.4657E+00
    -46.956  0.1954E+00  0.5064E+00
    -46.748 -0.2950E-01  0.5003E+00
    -46.539 -0.1321E-02  0.5000E+00
    -46.331 -0.4195E-05  0.5000E+00
    -46.122 -0.1328E-08  0.5000E+00
    -45.914 -0.4500E-13  0.5000E+00
    -45.705  0.0000E+00  0.5000E+00
    -45.497  0.0000E+00  0.5000E+00
    -45.288  0.0000E+00  0.5000E+00
    -45.080  0.0000E+00  0.5000E+00
    -44.871  0.0000E+00  0.5000E+00
    -44.663  0.0000E+00  0.5000E+00
    -44.454  0.0000E+00  0.5000E+00
    -44.246  0.0000E+00  0.5000E+00
    -44.037  0.0000E+00  0.5000E+00
    -43.829  0.0000E+00  0.5000E+00
    -43.620  0.0000E+00  0.5000E+00
    -43.412  0.0000E+00  0.5000E+00
    -43.203  0.0000E+00  0.5000E+00
    -42.995  0.0000E+00  0.5000E+00
    -42.786  0.0000E+00  0.5000E+00
    -42.578  0.0000E+00  0.5000E+00
    -42.369  0.0000E+00  0.5000E+00
    -42.161  0.0000E+00  0.5000E+00
    -41.952  0.0000E+00  0.5000E+00
    -41.744  0.0000E+00  0.5000E+00
    -41.535  0.0000E+00  0.5000E+00
    -41.327  0.0000E+00  0.5000E+00
    -41.118  0.0000E+00  0.5000E+00
    -40.910  0.0000E+00  0.5000E+00
    -40.701  0.0000E+00  0.5000E+00
    -40.493  0.0000E+00  0.5000E+00
    -40.284  0.0000E+00  0.5000E+00
    -40.076  0.0000E+00  0.5000E+00
    -39.867  0.0000E+00  0.5000E+00
    -39.659  0.0000E+00  0.5000E+00
    -39.450  0.0000E+00  0.5000E+00
    -39.242  0.0000E+00  0.5000E+00
    -39.033  0.0000E+00  0.5000E+00
    -38.825  0.0000E+00  0.5000E+00
    -38.616  0.0000E+00  0.5000E+00
    -38.408  0.0000E+00  0.5000E+00
    -38.199  0.0000E+00  0.5000E+00
    -37.991  0.0000E+00  0.5000E+00
    -37.782  0.0000E+00  0.5000E+00
    -37.574  0.0000E+00  0.5000E+00
    -37.365  0.0000E+00  0.5000E+00
    -37.157  0.0000E+00  0.5000E+00
    -36.948  0.0000E+00  0.5000E+00
    -36.740  0.0000E+00  0.5000E+00
    -36.531  0.0000E+00  0.5000E+00
    -36.323  0.0000E+00  0.5000E+00
    -36.114  0.0000E+00  0.5000E+00
    -35.906  0.0000E+00  0.5000E+00
    -35.697  0.0000E+00  0.5000E+00
    -35.489  0.0000E+00  0.5000E+00
    -35.280  0.0000E+00  0.5000E+00
    -35.072  0.0000E+00  0.5000E+00
    -34.863  0.0000E+00  0.5000E+00
    -34.655  0.0000E+00  0.5000E+00
    -34.446  0.0000E+00  0.5000E+00
    -34.238  0.0000E+00  0.5000E+00
    -34.029  0.0000E+00  0.5000E+00
    -33.821  0.0000E+00  0.5000E+00
    -33.612  0.0000E+00  0.5000E+00
    -33.404  0.0000E+00  0.5000E+00
    -33.195  0.0000E+00  0.5000E+00
    -32.987  0.0000E+00  0.5000E+00
    -32.778  0.0000E+00  0.5000E+00
    -32.570  0.0000E+00  0.5000E+00
    -32.361  0.0000E+00  0.5000E+00
    -32.153  0.0000E+00  0.5000E+00
    -31.944  0.0000E+00  0.5000E+00
    -31.736  0.0000E+00  0.5000E+00
    -31.527  0.0000E+00  0.5000E+00
    -31.319  0.0000E+00  0.5000E+00
    -31.110  0.0000E+00  0.5000E+00
    -30.902  0.0000E+00  0.5000E+00
    -30.693  0.0000E+00  0.5000E+00
    -30.485  0.0000E+00  0.5000E+00
    -30.276  0.0000E+00  0.5000E+00
    -30.068  0.0000E+00  0.5000E+00
    -29.859  0.0000E+00  0.5000E+00
    -29.651  0.0000E+00  0.5000E+00
    -29.442  0.0000E+00  0.5000E+00
    -29.234  0.0000E+00  0.5000E+00
    -29.025  0.0000E+00  0.5000E+00
    -28.817  0.0000E+00  0.5000E+00
    -28.608  0.0000E+00  0.5000E+00
    -28.400  0.0000E+00  0.5000E+00
    -28.191  0.0000E+00  0.5000E+00
    -27.983  0.0000E+00  0.5000E+00
    -27.774  0.0000E+00  0.5000E+00
    -27.566  0.0000E+00  0.5000E+00
    -27.357  0.0000E+00  0.5000E+00
    -27.149  0.0000E+00  0.5000E+00
    -26.940  0.0000E+00  0.5000E+00
    -26.732  0.0000E+00  0.5000E+00
    -26.523  0.0000E+00  0.5000E+00
    -26.315  0.0000E+00  0.5000E+00
    -26.106  0.0000E+00  0.5000E+00
    -25.898  0.0000E+00  0.5000E+00
    -25.689 -0.2150E-29  0.5000E+00
    -25.481 -0.1955E-22  0.5000E+00
    -25.272 -0.1983E-16  0.5000E+00
    -25.064 -0.2145E-11  0.5000E+00
    -24.855 -0.2586E-07  0.5000E+00
    -24.647 -0.3288E-04  0.5000E+00
    -24.438 -0.4106E-02  0.4991E+00
    -24.230 -0.3113E-01  0.4926E+00
    -24.021  0.3311E+00  0.5617E+00
    -23.813  0.1375E+01  0.8484E+00
    -23.604  0.1775E+01  0.1219E+01
    -23.396  0.1925E+01  0.1620E+01
    -23.187  0.1157E+01  0.1861E+01
    -22.979  0.6141E+00  0.1989E+01
    -22.770  0.6919E-01  0.2004E+01
    -22.562 -0.1668E-01  0.2000E+01
    -22.353 -0.5057E-03  0.2000E+01
    -22.145 -0.1267E-05  0.2000E+01
    -21.936 -0.3241E-09  0.2000E+01
    -21.728 -0.8866E-14  0.2000E+01
    -21.519  0.0000E+00  0.2000E+01
    -21.311  0.0000E+00  0.2000E+01
    -21.102  0.0000E+00  0.2000E+01
    -20.894  0.0000E+00  0.2000E+01
    -20.685  0.0000E+00  0.2000E+01
    -20.477  0.0000E+00  0.2000E+01
    -20.268  0.0000E+00  0.2000E+01
    -20.060  0.0000E+00  0.2000E+01
    -19.851  0.0000E+00  0.2000E+01
    -19.643  0.0000E+00  0.2000E+01
    -19.434  0.0000E+00  0.2000E+01
    -19.226  0.0000E+00  0.2000E+01
    -19.017  0.0000E+00  0.2000E+01
    -18.809  0.0000E+00  0.2000E+01
    -18.600  0.0000E+00  0.2000E+01
    -18.392  0.0000E+00  0.2000E+01
    -18.183  0.0000E+00  0.2000E+01
    -17.975  0.0000E+00  0.2000E+01
    -17.766  0.0000E+00  0.2000E+01
    -17.558  0.0000E+00  0.2000E+01
    -17.349  0.0000E+00  0.2000E+01
    -17.141  0.0000E+00  0.2000E+01
    -16.932  0.0000E+00  0.2000E+01
    -16.724  0.0000E+00  0.2000E+01
    -16.515  0.0000E+00  0.2000E+01
    -16.307  0.0000E+00  0.2000E+01
    -16.098  0.0000E+00  0.2000E+01
    -15.890  0.0000E+00  0.2000E+01
    -15.681  0.0000E+00  0.2000E+01
    -15.473  0.0000E+00  0.2000E+01
    -15.264  0.0000E+00  0.2000E+01
    -15.056  0.0000E+00  0.2000E+01
    -14.847  0.0000E+00  0.2000E+01
    -14.639  0.0000E+00  0.2000E+01
    -14.430  0.0000E+00  0.2000E+01
    -14.222  0.0000E+00  0.2000E+01
    -14.013  0.0000E+00  0.2000E+01
    -13.805  0.0000E+00  0.2000E+01
    -13.596  0.0000E+00  0.2000E+01
    -13.388  0.0000E+00  0.2000E+01
    -13.179  0.0000E+00  0.2000E+01
    -12.971  0.0000E+00  0.2000E+01
    -12.762  0.0000E+00  0.2000E+01
    -12.553  0.0000E+00  0.2000E+01
    -12.345  0.0000E+00  0.2000E+01
    -12.136  0.0000E+00  0.2000E+01
    -11.928  0.0000E+00  0.2000E+01
    -11.719  0.0000E+00  0.2000E+01
    -11.511  0.0000E+00  0.2000E+01
    -11.302  0.0000E+00  0.2000E+01
    -11.094  0.0000E+00  0.2000E+01
    -10.885  0.0000E+00  0.2000E+01
    -10.677  0.0000E+00  0.2000E+01
    -10.468  0.0000E+00  0.2000E+01
    -10.260  0.0000E+00  0.2000E+01
    -10.051  0.0000E+00  0.2000E+01
     -9.843  0.0000E+00  0.2000E+01
     -9.634  0.0000E+00  0.2000E+01
     -9.426  0.0000E+00  0.2000E+01
     -9.217  0.0000E+00  0.2000E+01
     -9.009  0.0000E+00  0.2000E+01
     -8.800  0.0000E+00  0.2000E+01
     -8.592  0.0000E+00  0.2000E+01
     -8.383  0.0000E+00  0.2000E+01
     -8.175  0.0000E+00  0.2000E+01
     -7.966  0.0000E+00  0.2000E+01
     -7.758  0.0000E+00  0.2000E+01
     -7.549  0.0000E+00  0.2000E+01
     -7.341  0.0000E+00  0.2000E+01
     -7.132  0.0000E+00  0.2000E+01
     -6.924  0.0000E+00  0.2000E+01
     -6.715  0.0000E+00  0.2000E+01
     -6.507  0.0000E+00  0.2000E+01
     -6.298  0.0000E+00  0.2000E+01
     -6.090  0.0000E+00  0.2000E+01
     -5.881  0.0000E+00  0.2000E+01
     -5.673  0.0000E+00  0.2000E+01
     -5.464  0.0000E+00  0.2000E+01
     -5.256  0.0000E+00  0.2000E+01
     -5.047  0.0000E+00  0.2000E+01
     -4.839  0.0000E+00  0.2000E+01
     -4.630  0.0000E+00  0.2000E+01
     -4.422  0.0000E+00  0.2000E+01
     -4.213  0.0000E+00  0.2000E+01
     -4.005  0.0000E+00  0.2000E+01
     -3.796  0.0000E+00  0.2000E+01
     -3.588  0.0000E+00  0.2000E+01
     -3.379  0.0000E+00  0.2000E+01
     -3.171  0.0000E+00  0.2000E+01
     -2.962  0.0000E+00  0.2000E+01
     -2.754  0.0000E+00  0.2000E+01
     -2.545 -0.9916E-35  0.2000E+01
     -2.337 -0.2307E-27  0.2000E+01
     -2.128 -0.6033E-21  0.2000E+01
     -1.920 -0.1715E-15  0.2000E+01
     -1.711 -0.5588E-11  0.2000E+01
     -1.503 -0.2026E-07  0.2000E+01
     -1.294 -0.8067E-05  0.2000E+01
     -1.086 -0.3208E-03  0.2000E+01
     -0.877  0.2199E-03  0.2000E+01
     -0.669  0.1579E-01  0.2003E+01
     -0.460  0.4838E-01  0.2013E+01
     -0.252  0.8210E-01  0.2030E+01
     -0.043  0.9314E-01  0.2050E+01
      0.165  0.7403E-01  0.2065E+01
      0.374  0.1224E+00  0.2091E+01
      0.582  0.1649E+00  0.2125E+01
      0.791  0.1553E+00  0.2158E+01
      0.999  0.1345E+00  0.2186E+01
      1.208  0.2117E+00  0.2230E+01
      1.416  0.2040E+00  0.2272E+01
      1.625  0.2188E+00  0.2318E+01
      1.833  0.3417E+00  0.2389E+01
      2.042  0.4767E+00  0.2489E+01
      2.250  0.7021E+00  0.2635E+01
      2.459  0.9285E+00  0.2829E+01
      2.667  0.1050E+01  0.3048E+01
      2.876  0.1271E+01  0.3312E+01
      3.084  0.1428E+01  0.3610E+01
      3.293  0.1459E+01  0.3914E+01
      3.501  0.1453E+01  0.4218E+01
      3.710  0.1474E+01  0.4525E+01
      3.918  0.1482E+01  0.4834E+01
      4.127  0.1290E+01  0.5103E+01
      4.335  0.1231E+01  0.5359E+01
      4.544  0.1697E+01  0.5713E+01
      4.752  0.1921E+01  0.6114E+01
      4.961  0.1996E+01  0.6530E+01
      5.169  0.1922E+01  0.6931E+01
      5.378  0.1811E+01  0.7309E+01
      5.586  0.1806E+01  0.7685E+01
      5.795  0.1918E+01  0.8085E+01
      6.003  0.1945E+01  0.8491E+01
      6.212  0.1978E+01  0.8903E+01
      6.420  0.1823E+01  0.9283E+01
      6.629  0.1590E+01  0.9615E+01
      6.837  0.1327E+01  0.9892E+01
      7.046  0.1002E+01  0.1010E+02
      7.254  0.7984E+00  0.1027E+02
      7.463  0.7979E+00  0.1043E+02
      7.671  0.8264E+00  0.1061E+02
      7.880  0.9283E+00  0.1080E+02
      8.088  0.1036E+01  0.1102E+02
      8.297  0.1176E+01  0.1126E+02
      8.505  0.1290E+01  0.1153E+02
      8.714  0.1114E+01  0.1176E+02
      8.922  0.7653E+00  0.1192E+02
      9.131  0.3499E+00  0.1199E+02
      9.339  0.3464E-01  0.1200E+02
      9.548 -0.7006E-02  0.1200E+02
      9.756 -0.5183E-03  0.1200E+02
      9.965 -0.4807E-05  0.1200E+02
     10.173 -0.5763E-08  0.1200E+02
     10.382 -0.8227E-12  0.1200E+02
     10.590 -0.1363E-16  0.1200E+02
     10.799  0.0000E+00  0.1200E+02
     11.007  0.0000E+00  0.1200E+02
     11.216  0.0000E+00  0.1200E+02
     11.424  0.0000E+00  0.1200E+02
     11.633  0.0000E+00  0.1200E+02
     11.841  0.0000E+00  0.1200E+02
     12.050  0.0000E+00  0.1200E+02
