   29   29   20    1
  0.1679057E+02  0.5525242E-09  0.8287863E-09  0.1139058E-08  0.5000000E-15
  1.000000000000000E-004
  CAR 
 SQS with 1 vacancy for VFE and VRV      
    191     63    120
 
  0.0000000E+00  0.0000000E+00  0.0000000E+00  0.8000000E-02
    1      -47.657633   1.000000
    2      -47.469274   1.000000
    3      -47.430358   1.000000
    4      -47.253401   1.000000
    5      -47.229783   1.000000
    6      -24.034328   1.000000
    7      -23.922783   1.000000
    8      -23.871272   1.000000
    9      -23.825668   1.000000
   10      -23.774422   1.000000
   11      -23.668152   1.000000
   12      -23.626123   1.000000
   13      -23.581962   1.000000
   14      -23.548833   1.000000
   15      -23.448572   1.000000
   16      -23.431334   1.000000
   17      -23.401508   1.000000
   18      -23.320715   1.000000
   19      -23.164635   1.000000
   20      -23.066858   1.000000
   21       -0.802508   1.000000
   22        0.543555   1.000000
   23        0.878365   1.000000
   24        1.775180   1.000000
   25        1.835765   1.000000
   26        1.918525   1.000000
   27        2.041536   1.000000
   28        2.140809   1.000000
   29        2.353100   1.000000
   30        2.373141   1.000000
   31        2.406023   1.000000
   32        2.475222   1.000000
   33        2.542631   1.000000
   34        2.616785   1.000000
   35        2.697954   1.000000
   36        2.772195   1.000000
   37        2.898440   1.000000
   38        2.995056   1.000000
   39        3.044301   1.000000
   40        3.144637   1.000000
   41        3.224400   1.000000
   42        3.278785   1.000000
   43        3.345058   1.000000
   44        3.389474   1.000000
   45        3.459660   1.000000
   46        3.536636   1.000000
   47        3.597326   1.000000
   48        3.652915   1.000000
   49        3.719431   1.000000
   50        3.837301   1.000000
   51        3.924893   1.000000
   52        3.996045   1.000000
   53        4.027467   1.000000
   54        4.102522   1.000000
   55        4.305847   1.000000
   56        4.374944   1.000000
   57        4.389571   1.000000
   58        4.435597   1.000000
   59        4.531797   1.000000
   60        4.578899   1.000000
   61        4.635143   1.000000
   62        4.693626   1.000000
   63        4.737267   1.000000
   64        4.777098   1.000000
   65        4.831668   1.000000
   66        4.850004   1.000000
   67        4.921163   1.000000
   68        5.033394   1.000000
   69        5.077485   1.000000
   70        5.102640   1.000000
   71        5.187766   1.000000
   72        5.224239   1.000000
   73        5.243309   1.000000
   74        5.354982   1.000000
   75        5.461966   1.000000
   76        5.556434   1.000000
   77        5.661380   1.000000
   78        5.729023   1.000000
   79        5.735395   1.000000
   80        5.815635   1.000000
   81        5.826779   1.000001
   82        5.917034   1.000012
   83        5.958047   1.000042
   84        6.047807   1.000473
   85        6.066237   1.000736
   86        6.121603   1.002471
   87        6.258822   1.021414
   88        6.293654   1.029319
   89        6.387327   1.024426
   90        6.547720   0.658743
   91        6.603493   0.426306
   92        6.622124   0.349888
   93        6.648890   0.247925
   94        6.761275  -0.007086
   95        6.838178  -0.035266
   96        6.896940  -0.025162
   97        6.930642  -0.017548
   98        7.007709  -0.005543
   99        7.097614  -0.000890
  100        7.353331  -0.000000
  101        7.476413  -0.000000
  102        7.589699  -0.000000
  103        7.640695  -0.000000
  104        7.684843  -0.000000
  105        8.040975  -0.000000
  106        8.157202  -0.000000
  107        8.297807  -0.000000
  108        8.363468  -0.000000
  109        8.421857  -0.000000
  110        8.510852  -0.000000
  111        8.544711  -0.000000
  112        8.661911  -0.000000
  113        8.808102  -0.000000
  114        8.852967  -0.000000
  115        8.891315  -0.000000
  116        8.973781  -0.000000
  117        8.979638  -0.000000
  118        9.023253  -0.000000
  119        9.077696  -0.000000
  120        9.147158  -0.000000
 
  0.2000000E+00 -0.1387779E-16  0.0000000E+00  0.1600000E-01
    1      -47.657619   1.000000
    2      -47.468538   1.000000
    3      -47.429995   1.000000
    4      -47.253006   1.000000
    5      -47.229702   1.000000
    6      -24.034660   1.000000
    7      -23.921433   1.000000
    8      -23.870070   1.000000
    9      -23.826047   1.000000
   10      -23.774529   1.000000
   11      -23.670648   1.000000
   12      -23.632426   1.000000
   13      -23.586872   1.000000
   14      -23.551092   1.000000
   15      -23.451294   1.000000
   16      -23.435812   1.000000
   17      -23.404736   1.000000
   18      -23.322386   1.000000
   19      -23.171506   1.000000
   20      -23.067848   1.000000
   21       -0.480932   1.000000
   22        0.807649   1.000000
   23        1.153053   1.000000
   24        1.842373   1.000000
   25        2.047837   1.000000
   26        2.159013   1.000000
   27        2.240114   1.000000
   28        2.346883   1.000000
   29        2.438833   1.000000
   30        2.527318   1.000000
   31        2.617508   1.000000
   32        2.649893   1.000000
   33        2.706158   1.000000
   34        2.835617   1.000000
   35        2.888239   1.000000
   36        2.943408   1.000000
   37        3.028753   1.000000
   38        3.094450   1.000000
   39        3.131164   1.000000
   40        3.192792   1.000000
   41        3.262579   1.000000
   42        3.368142   1.000000
   43        3.469047   1.000000
   44        3.576074   1.000000
   45        3.594396   1.000000
   46        3.697162   1.000000
   47        3.719999   1.000000
   48        3.771498   1.000000
   49        3.841515   1.000000
   50        3.926661   1.000000
   51        4.003689   1.000000
   52        4.069855   1.000000
   53        4.133859   1.000000
   54        4.182930   1.000000
   55        4.321050   1.000000
   56        4.392654   1.000000
   57        4.447561   1.000000
   58        4.529545   1.000000
   59        4.584936   1.000000
   60        4.644633   1.000000
   61        4.700474   1.000000
   62        4.742135   1.000000
   63        4.799351   1.000000
   64        4.882033   1.000000
   65        4.920317   1.000000
   66        4.984075   1.000000
   67        5.025021   1.000000
   68        5.073452   1.000000
   69        5.099779   1.000000
   70        5.158486   1.000000
   71        5.224750   1.000000
   72        5.273453   1.000000
   73        5.343027   1.000000
   74        5.376734   1.000000
   75        5.450268   1.000000
   76        5.474245   1.000000
   77        5.559884   1.000000
   78        5.597155   1.000000
   79        5.686102   1.000000
   80        5.754151   1.000000
   81        5.784438   1.000000
   82        5.868847   1.000002
   83        5.907486   1.000009
   84        5.977773   1.000074
   85        6.037531   1.000367
   86        6.102812   1.001672
   87        6.126688   1.002737
   88        6.207420   1.011124
   89        6.235208   1.016261
   90        6.305909   1.031755
   91        6.405479   1.011848
   92        6.451925   0.949109
   93        6.512326   0.789539
   94        6.607119   0.411200
   95        6.639042   0.284086
   96        6.717385   0.056079
   97        6.785107  -0.024656
   98        6.813268  -0.034103
   99        6.887805  -0.027248
  100        6.987151  -0.007847
  101        7.119473  -0.000531
  102        7.307274  -0.000002
  103        7.350592  -0.000000
  104        7.437469  -0.000000
  105        7.630311  -0.000000
  106        7.753694  -0.000000
  107        7.846403  -0.000000
  108        7.884547  -0.000000
  109        7.981424  -0.000000
  110        8.022447  -0.000000
  111        8.140930  -0.000000
  112        8.229559  -0.000000
  113        8.356215  -0.000000
  114        8.377896  -0.000000
  115        8.488216  -0.000000
  116        8.563079  -0.000000
  117        8.628311  -0.000000
  118        8.696272  -0.000000
  119        8.873689  -0.000000
  120        8.904156  -0.000000
 
  0.4000000E+00 -0.2775558E-16  0.0000000E+00  0.1600000E-01
    1      -47.657596   1.000000
    2      -47.467339   1.000000
    3      -47.429413   1.000000
    4      -47.252371   1.000000
    5      -47.229569   1.000000
    6      -24.035425   1.000000
    7      -23.919514   1.000000
    8      -23.867660   1.000000
    9      -23.826670   1.000000
   10      -23.774706   1.000000
   11      -23.675100   1.000000
   12      -23.642979   1.000000
   13      -23.594949   1.000000
   14      -23.553675   1.000000
   15      -23.458690   1.000000
   16      -23.440359   1.000000
   17      -23.409853   1.000000
   18      -23.324784   1.000000
   19      -23.182871   1.000000
   20      -23.069338   1.000000
   21        0.359834   1.000000
   22        1.250198   1.000000
   23        1.773103   1.000000
   24        1.914880   1.000000
   25        2.144550   1.000000
   26        2.325616   1.000000
   27        2.457394   1.000000
   28        2.674819   1.000000
   29        2.734998   1.000000
   30        2.776780   1.000000
   31        2.903759   1.000000
   32        2.982044   1.000000
   33        3.020830   1.000000
   34        3.089939   1.000000
   35        3.164236   1.000000
   36        3.244251   1.000000
   37        3.268245   1.000000
   38        3.340919   1.000000
   39        3.382152   1.000000
   40        3.477566   1.000000
   41        3.534336   1.000000
   42        3.595242   1.000000
   43        3.677905   1.000000
   44        3.717709   1.000000
   45        3.796448   1.000000
   46        3.881391   1.000000
   47        3.975301   1.000000
   48        4.002680   1.000000
   49        4.125134   1.000000
   50        4.176509   1.000000
   51        4.270842   1.000000
   52        4.307747   1.000000
   53        4.348864   1.000000
   54        4.401603   1.000000
   55        4.422055   1.000000
   56        4.463092   1.000000
   57        4.513725   1.000000
   58        4.600575   1.000000
   59        4.652986   1.000000
   60        4.690383   1.000000
   61        4.708622   1.000000
   62        4.769368   1.000000
   63        4.817845   1.000000
   64        4.863977   1.000000
   65        4.956850   1.000000
   66        4.992117   1.000000
   67        5.032253   1.000000
   68        5.111767   1.000000
   69        5.159941   1.000000
   70        5.179397   1.000000
   71        5.238054   1.000000
   72        5.295334   1.000000
   73        5.368656   1.000000
   74        5.381044   1.000000
   75        5.433485   1.000000
   76        5.491215   1.000000
   77        5.548519   1.000000
   78        5.621445   1.000000
   79        5.659059   1.000000
   80        5.697385   1.000000
   81        5.731081   1.000000
   82        5.757522   1.000000
   83        5.859169   1.000002
   84        5.888445   1.000005
   85        5.947890   1.000031
   86        5.994697   1.000119
   87        6.057374   1.000597
   88        6.088161   1.001215
   89        6.136478   1.003317
   90        6.175787   1.006755
   91        6.221233   1.013532
   92        6.243993   1.018112
   93        6.303485   1.031303
   94        6.350255   1.035111
   95        6.426992   0.988772
   96        6.439502   0.970711
   97        6.510026   0.797211
   98        6.598002   0.449327
   99        6.674985   0.161641
  100        6.729869   0.033559
  101        6.762685  -0.008418
  102        6.842690  -0.034968
  103        6.923713  -0.019049
  104        6.973512  -0.009731
  105        7.118538  -0.000543
  106        7.258953  -0.000011
  107        7.360845  -0.000000
  108        7.460095  -0.000000
  109        7.532531  -0.000000
  110        7.623363  -0.000000
  111        7.697793  -0.000000
  112        7.785377  -0.000000
  113        7.874398  -0.000000
  114        8.029260  -0.000000
  115        8.133613  -0.000000
  116        8.225489  -0.000000
  117        8.321712  -0.000000
  118        8.378442  -0.000000
  119        8.451495  -0.000000
  120        8.496357  -0.000000
 
  0.0000000E+00  0.2000000E+00  0.1387779E-16  0.1600000E-01
    1      -47.657627   1.000000
    2      -47.469076   1.000000
    3      -47.430375   1.000000
    4      -47.253427   1.000000
    5      -47.229934   1.000000
    6      -24.032721   1.000000
    7      -23.920802   1.000000
    8      -23.869027   1.000000
    9      -23.825723   1.000000
   10      -23.774563   1.000000
   11      -23.668178   1.000000
   12      -23.626256   1.000000
   13      -23.581947   1.000000
   14      -23.548944   1.000000
   15      -23.448501   1.000000
   16      -23.431534   1.000000
   17      -23.401381   1.000000
   18      -23.320751   1.000000
   19      -23.170988   1.000000
   20      -23.067376   1.000000
   21       -0.663885   1.000000
   22        0.609327   1.000000
   23        0.950815   1.000000
   24        1.392323   1.000000
   25        1.778742   1.000000
   26        1.971154   1.000000
   27        2.084892   1.000000
   28        2.207100   1.000000
   29        2.306318   1.000000
   30        2.363809   1.000000
   31        2.446899   1.000000
   32        2.495985   1.000000
   33        2.562012   1.000000
   34        2.623339   1.000000
   35        2.690263   1.000000
   36        2.754463   1.000000
   37        2.818630   1.000000
   38        2.916863   1.000000
   39        2.980352   1.000000
   40        3.151954   1.000000
   41        3.199561   1.000000
   42        3.293911   1.000000
   43        3.399260   1.000000
   44        3.457075   1.000000
   45        3.527630   1.000000
   46        3.574096   1.000000
   47        3.639446   1.000000
   48        3.688918   1.000000
   49        3.755958   1.000000
   50        3.870727   1.000000
   51        3.905019   1.000000
   52        3.932758   1.000000
   53        4.056806   1.000000
   54        4.240442   1.000000
   55        4.330071   1.000000
   56        4.360926   1.000000
   57        4.468742   1.000000
   58        4.510726   1.000000
   59        4.563869   1.000000
   60        4.602756   1.000000
   61        4.679884   1.000000
   62        4.731764   1.000000
   63        4.781333   1.000000
   64        4.845972   1.000000
   65        4.850378   1.000000
   66        4.931802   1.000000
   67        4.978389   1.000000
   68        5.010690   1.000000
   69        5.114649   1.000000
   70        5.150068   1.000000
   71        5.209023   1.000000
   72        5.259660   1.000000
   73        5.333793   1.000000
   74        5.366286   1.000000
   75        5.525835   1.000000
   76        5.561350   1.000000
   77        5.604578   1.000000
   78        5.658379   1.000000
   79        5.732520   1.000000
   80        5.797035   1.000000
   81        5.860194   1.000002
   82        5.914104   1.000011
   83        5.940049   1.000024
   84        5.970856   1.000061
   85        5.990293   1.000105
   86        6.081514   1.001047
   87        6.107300   1.001839
   88        6.176975   1.006891
   89        6.277492   1.025721
   90        6.356185   1.034482
   91        6.458395   0.936353
   92        6.537954   0.696953
   93        6.641142   0.276228
   94        6.672154   0.170268
   95        6.793722  -0.028683
   96        6.923091  -0.019186
   97        7.032133  -0.003540
   98        7.138933  -0.000328
   99        7.210165  -0.000047
  100        7.360462  -0.000000
  101        7.500780  -0.000000
  102        7.557103  -0.000000
  103        7.639060  -0.000000
  104        7.722748  -0.000000
  105        7.837443  -0.000000
  106        7.918299  -0.000000
  107        7.968379  -0.000000
  108        8.022909  -0.000000
  109        8.210844  -0.000000
  110        8.403264  -0.000000
  111        8.429962  -0.000000
  112        8.524077  -0.000000
  113        8.612830  -0.000000
  114        8.696481  -0.000000
  115        8.748306  -0.000000
  116        8.807666  -0.000000
  117        8.843186  -0.000000
  118        8.878867  -0.000000
  119        8.929394  -0.000000
  120        8.979036  -0.000000
 
  0.2000000E+00  0.2000000E+00 -0.4857226E-16  0.1600000E-01
    1      -47.657624   1.000000
    2      -47.468727   1.000000
    3      -47.429979   1.000000
    4      -47.252982   1.000000
    5      -47.229556   1.000000
    6      -24.036191   1.000000
    7      -23.923378   1.000000
    8      -23.872251   1.000000
    9      -23.825982   1.000000
   10      -23.774406   1.000000
   11      -23.670609   1.000000
   12      -23.632443   1.000000
   13      -23.586874   1.000000
   14      -23.551009   1.000000
   15      -23.451336   1.000000
   16      -23.435631   1.000000
   17      -23.404699   1.000000
   18      -23.322344   1.000000
   19      -23.165343   1.000000
   20      -23.067365   1.000000
   21       -0.479595   1.000000
   22        0.772765   1.000000
   23        1.159394   1.000000
   24        1.786776   1.000000
   25        1.991417   1.000000
   26        2.130676   1.000000
   27        2.192074   1.000000
   28        2.253872   1.000000
   29        2.389959   1.000000
   30        2.515982   1.000000
   31        2.617928   1.000000
   32        2.656016   1.000000
   33        2.726444   1.000000
   34        2.771690   1.000000
   35        2.887578   1.000000
   36        2.927849   1.000000
   37        2.973464   1.000000
   38        3.037121   1.000000
   39        3.158839   1.000000
   40        3.217427   1.000000
   41        3.341450   1.000000
   42        3.411455   1.000000
   43        3.469824   1.000000
   44        3.565242   1.000000
   45        3.607328   1.000000
   46        3.647627   1.000000
   47        3.733813   1.000000
   48        3.778472   1.000000
   49        3.876810   1.000000
   50        3.927629   1.000000
   51        3.974344   1.000000
   52        4.093470   1.000000
   53        4.193173   1.000000
   54        4.225939   1.000000
   55        4.317052   1.000000
   56        4.407861   1.000000
   57        4.467809   1.000000
   58        4.486250   1.000000
   59        4.576334   1.000000
   60        4.603211   1.000000
   61        4.688446   1.000000
   62        4.771827   1.000000
   63        4.811736   1.000000
   64        4.833507   1.000000
   65        4.882964   1.000000
   66        4.899448   1.000000
   67        4.973023   1.000000
   68        5.030903   1.000000
   69        5.044344   1.000000
   70        5.102495   1.000000
   71        5.183743   1.000000
   72        5.254152   1.000000
   73        5.330270   1.000000
   74        5.364031   1.000000
   75        5.445057   1.000000
   76        5.492554   1.000000
   77        5.532817   1.000000
   78        5.587846   1.000000
   79        5.663600   1.000000
   80        5.686551   1.000000
   81        5.769866   1.000000
   82        5.859295   1.000002
   83        5.933974   1.000020
   84        5.955076   1.000038
   85        6.047309   1.000467
   86        6.101395   1.001622
   87        6.171404   1.006270
   88        6.186764   1.008093
   89        6.296811   1.029979
   90        6.358188   1.034191
   91        6.442347   0.966093
   92        6.492402   0.852021
   93        6.566698   0.581267
   94        6.648763   0.248381
   95        6.749392   0.005743
   96        6.791580  -0.027784
   97        6.833584  -0.035432
   98        6.882106  -0.028511
   99        6.991213  -0.007343
  100        7.039040  -0.003098
  101        7.117119  -0.000562
  102        7.221498  -0.000033
  103        7.265672  -0.000008
  104        7.370070  -0.000000
  105        7.568269  -0.000000
  106        7.754747  -0.000000
  107        7.834504  -0.000000
  108        8.006747  -0.000000
  109        8.215354  -0.000000
  110        8.288127  -0.000000
  111        8.466355  -0.000000
  112        8.505143  -0.000000
  113        8.660201  -0.000000
  114        8.693634  -0.000000
  115        8.779860  -0.000000
  116        8.825918  -0.000000
  117        8.908289  -0.000000
  118        8.942121  -0.000000
  119        8.979513  -0.000000
  120        9.027101  -0.000000
 
  0.4000000E+00  0.2000000E+00 -0.5551115E-16  0.1600000E-01
    1      -47.657604   1.000000
    2      -47.467653   1.000000
    3      -47.429384   1.000000
    4      -47.252329   1.000000
    5      -47.229333   1.000000
    6      -24.037774   1.000000
    7      -23.922436   1.000000
    8      -23.871745   1.000000
    9      -23.826569   1.000000
   10      -23.774499   1.000000
   11      -23.675101   1.000000
   12      -23.642964   1.000000
   13      -23.594951   1.000000
   14      -23.553533   1.000000
   15      -23.458684   1.000000
   16      -23.440145   1.000000
   17      -23.409845   1.000000
   18      -23.324702   1.000000
   19      -23.172542   1.000000
   20      -23.068629   1.000000
   21        0.259801   1.000000
   22        1.211300   1.000000
   23        1.641410   1.000000
   24        1.887916   1.000000
   25        1.991391   1.000000
   26        2.204912   1.000000
   27        2.408166   1.000000
   28        2.720766   1.000000
   29        2.813793   1.000000
   30        2.863627   1.000000
   31        2.942825   1.000000
   32        3.000972   1.000000
   33        3.081004   1.000000
   34        3.117431   1.000000
   35        3.253097   1.000000
   36        3.283925   1.000000
   37        3.331997   1.000000
   38        3.340266   1.000000
   39        3.400734   1.000000
   40        3.437031   1.000000
   41        3.491740   1.000000
   42        3.563823   1.000000
   43        3.616370   1.000000
   44        3.695084   1.000000
   45        3.825578   1.000000
   46        3.882466   1.000000
   47        3.913414   1.000000
   48        3.943939   1.000000
   49        4.002472   1.000000
   50        4.061690   1.000000
   51        4.108981   1.000000
   52        4.210794   1.000000
   53        4.302555   1.000000
   54        4.376153   1.000000
   55        4.432034   1.000000
   56        4.496375   1.000000
   57        4.538138   1.000000
   58        4.570247   1.000000
   59        4.671763   1.000000
   60        4.691100   1.000000
   61        4.711972   1.000000
   62        4.781455   1.000000
   63        4.822936   1.000000
   64        4.868538   1.000000
   65        4.932134   1.000000
   66        4.981773   1.000000
   67        5.005752   1.000000
   68        5.063901   1.000000
   69        5.149648   1.000000
   70        5.207752   1.000000
   71        5.257959   1.000000
   72        5.283150   1.000000
   73        5.351659   1.000000
   74        5.387086   1.000000
   75        5.448164   1.000000
   76        5.507806   1.000000
   77        5.583999   1.000000
   78        5.619631   1.000000
   79        5.658769   1.000000
   80        5.731725   1.000000
   81        5.749919   1.000000
   82        5.791941   1.000000
   83        5.839367   1.000001
   84        5.874255   1.000003
   85        5.943544   1.000027
   86        5.970825   1.000061
   87        6.031943   1.000318
   88        6.068177   1.000770
   89        6.089759   1.001259
   90        6.116746   1.002238
   91        6.179753   1.007217
   92        6.244956   1.018320
   93        6.253165   1.020133
   94        6.290600   1.028663
   95        6.352233   1.034939
   96        6.400130   1.016159
   97        6.457139   0.938911
   98        6.510126   0.796880
   99        6.660853   0.206533
  100        6.710097   0.071012
  101        6.805794  -0.032583
  102        6.887412  -0.027336
  103        7.005726  -0.005739
  104        7.208628  -0.000049
  105        7.377695  -0.000000
  106        7.488854  -0.000000
  107        7.544738  -0.000000
  108        7.683614  -0.000000
  109        7.857783  -0.000000
  110        7.943597  -0.000000
  111        7.993045  -0.000000
  112        8.084776  -0.000000
  113        8.165608  -0.000000
  114        8.219918  -0.000000
  115        8.291635  -0.000000
  116        8.386905  -0.000000
  117        8.406483  -0.000000
  118        8.504925  -0.000000
  119        8.541610  -0.000000
  120        8.647951  -0.000000
 
 -0.4000000E+00  0.2000000E+00 -0.3908332E-16  0.1600000E-01
    1      -47.657596   1.000000
    2      -47.467334   1.000000
    3      -47.429414   1.000000
    4      -47.252373   1.000000
    5      -47.229572   1.000000
    6      -24.035394   1.000000
    7      -23.919502   1.000000
    8      -23.867624   1.000000
    9      -23.826669   1.000000
   10      -23.774716   1.000000
   11      -23.675092   1.000000
   12      -23.643056   1.000000
   13      -23.594935   1.000000
   14      -23.553689   1.000000
   15      -23.458679   1.000000
   16      -23.440367   1.000000
   17      -23.409773   1.000000
   18      -23.324785   1.000000
   19      -23.182976   1.000000
   20      -23.069356   1.000000
   21        0.618364   1.000000
   22        1.210532   1.000000
   23        1.514517   1.000000
   24        1.943926   1.000000
   25        2.012723   1.000000
   26        2.270250   1.000000
   27        2.435695   1.000000
   28        2.618640   1.000000
   29        2.688590   1.000000
   30        2.824173   1.000000
   31        2.899160   1.000000
   32        2.981277   1.000000
   33        3.014342   1.000000
   34        3.095653   1.000000
   35        3.188411   1.000000
   36        3.232133   1.000000
   37        3.295095   1.000000
   38        3.325590   1.000000
   39        3.381996   1.000000
   40        3.466632   1.000000
   41        3.525381   1.000000
   42        3.621183   1.000000
   43        3.678317   1.000000
   44        3.760144   1.000000
   45        3.817965   1.000000
   46        3.929224   1.000000
   47        3.972928   1.000000
   48        4.050056   1.000000
   49        4.134946   1.000000
   50        4.196540   1.000000
   51        4.262418   1.000000
   52        4.305529   1.000000
   53        4.337241   1.000000
   54        4.422690   1.000000
   55        4.486096   1.000000
   56        4.516442   1.000000
   57        4.544648   1.000000
   58        4.625525   1.000000
   59        4.634696   1.000000
   60        4.691180   1.000000
   61        4.725921   1.000000
   62        4.760596   1.000000
   63        4.852019   1.000000
   64        4.870592   1.000000
   65        4.920542   1.000000
   66        4.962146   1.000000
   67        5.031546   1.000000
   68        5.090954   1.000000
   69        5.126152   1.000000
   70        5.154583   1.000000
   71        5.166118   1.000000
   72        5.265487   1.000000
   73        5.326366   1.000000
   74        5.350426   1.000000
   75        5.437534   1.000000
   76        5.496290   1.000000
   77        5.568839   1.000000
   78        5.612567   1.000000
   79        5.639266   1.000000
   80        5.699125   1.000000
   81        5.720237   1.000000
   82        5.780707   1.000000
   83        5.823579   1.000000
   84        5.891992   1.000005
   85        5.932555   1.000019
   86        5.970034   1.000059
   87        6.048467   1.000481
   88        6.103199   1.001686
   89        6.147799   1.004111
   90        6.176754   1.006865
   91        6.238980   1.017044
   92        6.261099   1.021936
   93        6.301749   1.030969
   94        6.348681   1.035222
   95        6.442137   0.966441
   96        6.490849   0.856502
   97        6.543208   0.676566
   98        6.583842   0.509144
   99        6.664024   0.196068
  100        6.726661   0.038982
  101        6.772610  -0.016710
  102        6.846127  -0.034659
  103        6.924194  -0.018943
  104        7.025045  -0.004048
  105        7.051918  -0.002396
  106        7.175418  -0.000125
  107        7.319828  -0.000001
  108        7.517433  -0.000000
  109        7.591176  -0.000000
  110        7.656084  -0.000000
  111        7.866879  -0.000000
  112        7.881471  -0.000000
  113        8.052935  -0.000000
  114        8.098201  -0.000000
  115        8.208345  -0.000000
  116        8.246257  -0.000000
  117        8.283282  -0.000000
  118        8.344441  -0.000000
  119        8.401331  -0.000000
  120        8.424879  -0.000000
 
 -0.2000000E+00  0.2000000E+00  0.1006140E-15  0.1600000E-01
    1      -47.657610   1.000000
    2      -47.468217   1.000000
    3      -47.430024   1.000000
    4      -47.253049   1.000000
    5      -47.229945   1.000000
    6      -24.032247   1.000000
    7      -23.918459   1.000000
    8      -23.865890   1.000000
    9      -23.826143   1.000000
   10      -23.774754   1.000000
   11      -23.670662   1.000000
   12      -23.632596   1.000000
   13      -23.586846   1.000000
   14      -23.551263   1.000000
   15      -23.451196   1.000000
   16      -23.436118   1.000000
   17      -23.404581   1.000000
   18      -23.322452   1.000000
   19      -23.182060   1.000000
   20      -23.068582   1.000000
   21       -0.227764   1.000000
   22        0.868747   1.000000
   23        1.208883   1.000000
   24        1.504918   1.000000
   25        1.901905   1.000000
   26        2.214654   1.000000
   27        2.346544   1.000000
   28        2.414703   1.000000
   29        2.508727   1.000000
   30        2.561050   1.000000
   31        2.581335   1.000000
   32        2.675802   1.000000
   33        2.747616   1.000000
   34        2.797773   1.000000
   35        2.860516   1.000000
   36        2.903470   1.000000
   37        2.975049   1.000000
   38        3.027441   1.000000
   39        3.066910   1.000000
   40        3.173260   1.000000
   41        3.283318   1.000000
   42        3.349801   1.000000
   43        3.469963   1.000000
   44        3.520987   1.000000
   45        3.589137   1.000000
   46        3.701428   1.000000
   47        3.762427   1.000000