 running on   32 total cores
 distrk:  each k-point on   32 cores,    1 groups
 distr:  one band on    4 cores,    8 groups
 using from now: INCAR     
 vasp.5.4.4.18Apr17-6-g9f103f2a35 (build Aug 09 2018 16:20:53) complex          
  
 POSCAR found :  5 types and      29 ions
 scaLAPACK will be used

 ----------------------------------------------------------------------------- 
|                                                                             |
|  ADVICE TO THIS USER RUNNING 'VASP/VAMP'   (HEAR YOUR MASTER'S VOICE ...):  |
|                                                                             |
|      You enforced a specific xc-type in the INCAR file,                     |
|      a different type was found on the POTCAR file                          |
|          I HOPE YOU KNOW, WHAT YOU ARE  DOING                               |
|                                                                             |
 ----------------------------------------------------------------------------- 

 LDA part: xc-table for Pade appr. of Perdew
 POSCAR found :  5 types and      29 ions
 POSCAR, INCAR and KPOINTS ok, starting setup
 FFT: planning ...
 WAVECAR not read
 entering main loop
       N       E                     dE             d eps       ncg     rms          rms(c)
DAV:   1     0.193736061535E+04    0.19374E+04   -0.86008E+04 15120   0.167E+03
DAV:   2     0.273320664591E+02   -0.19100E+04   -0.18395E+04 15120   0.483E+02
DAV:   3    -0.310595266172E+03   -0.33793E+03   -0.31744E+03 26704   0.171E+02
DAV:   4    -0.350306958067E+03   -0.39712E+02   -0.36506E+02 23968   0.547E+01
DAV:   5    -0.354273566440E+03   -0.39666E+01   -0.38898E+01 28120   0.190E+01    0.760E+01
DAV:   6    -0.344053956417E+03    0.10220E+02   -0.95666E+01 21128   0.292E+01    0.392E+01
DAV:   7    -0.360247932048E+03   -0.16194E+02   -0.43639E+02 22096   0.961E+01    0.264E+01
DAV:   8    -0.349644891185E+03    0.10603E+02   -0.10190E+02 23120   0.334E+01    0.193E+01
DAV:   9    -0.338821566194E+03    0.10823E+02   -0.19317E+01 21280   0.151E+01    0.131E+01
DAV:  10    -0.335212848021E+03    0.36087E+01   -0.69653E+00 22544   0.800E+00    0.107E+01
DAV:  11    -0.333040052268E+03    0.21728E+01   -0.39844E+00 21960   0.562E+00    0.710E+00
DAV:  12    -0.332325275481E+03    0.71478E+00   -0.20794E+00 22000   0.441E+00    0.422E+00
DAV:  13    -0.332143329394E+03    0.18195E+00   -0.13872E+00 21920   0.364E+00    0.252E+00
DAV:  14    -0.332064818599E+03    0.78511E-01   -0.76008E-01 21992   0.272E+00    0.131E+00
DAV:  15    -0.332072910152E+03   -0.80916E-02   -0.48253E-01 22664   0.217E+00    0.142E+00
DAV:  16    -0.332058666326E+03    0.14244E-01   -0.11592E-01 23000   0.105E+00    0.927E-01
DAV:  17    -0.332049678535E+03    0.89878E-02   -0.46019E-02 22320   0.637E-01    0.560E-01
DAV:  18    -0.332046323277E+03    0.33553E-02   -0.26014E-02 22216   0.468E-01    0.274E-01
DAV:  19    -0.332045948276E+03    0.37500E-03   -0.91575E-03 22504   0.280E-01    0.141E-01
DAV:  20    -0.332045869405E+03    0.78871E-04   -0.37222E-03 20872   0.194E-01    0.109E-01
DAV:  21    -0.332045816521E+03    0.52884E-04   -0.23792E-03 20536   0.146E-01    0.795E-02
DAV:  22    -0.332045746558E+03    0.69963E-04   -0.10466E-03 18256   0.102E-01    0.412E-02
DAV:  23    -0.332045722310E+03    0.24248E-04   -0.10694E-04 10736   0.476E-02
   1 F= -.33204572E+03 E0= -.33204283E+03  d E =-.332046E+03
 curvature:   0.00 expect dE= 0.000E+00 dE for cont linesearch  0.000E+00
 trial: gam= 0.00000 g(F)=  0.738E+00 g(S)=  0.613E+00 ort = 0.000E+00 (trialstep = 0.100E+01)
 search vector abs. value=  0.135E+01
 bond charge predicted
       N       E                     dE             d eps       ncg     rms          rms(c)
DAV:   1    -0.334262241150E+03   -0.22165E+01   -0.16129E+02 19152   0.528E+01    0.162E+01
DAV:   2    -0.334385264180E+03   -0.12302E+00   -0.28985E+01 24136   0.232E+01    0.103E+01
DAV:   3    -0.333294470332E+03    0.10908E+01   -0.18707E+01 22352   0.127E+01    0.870E+00
DAV:   4    -0.332777738485E+03    0.51673E+00   -0.12606E+01 23496   0.122E+01    0.549E+00
DAV:   5    -0.332342446178E+03    0.43529E+00   -0.47016E+00 22992   0.715E+00    0.300E+00
DAV:   6    -0.332193095465E+03    0.14935E+00   -0.95579E-01 24432   0.318E+00    0.180E+00
DAV:   7    -0.332210570156E+03   -0.17475E-01   -0.34453E-01 24872   0.179E+00    0.144E+00
DAV:   8    -0.332201571364E+03    0.89988E-02   -0.17841E-01 23272   0.136E+00    0.105E+00
DAV:   9    -0.332205612453E+03   -0.40411E-02   -0.78077E-02 22624   0.818E-01    0.668E-01
DAV:  10    -0.332211768940E+03   -0.61565E-02   -0.55740E-02 23264   0.752E-01    0.499E-01
DAV:  11    -0.332211420607E+03    0.34833E-03   -0.32714E-02 23464   0.536E-01    0.269E-01
DAV:  12    -0.332211606098E+03   -0.18549E-03   -0.88617E-03 24568   0.279E-01    0.142E-01
DAV:  13    -0.332211787479E+03   -0.18138E-03   -0.27105E-03 23952   0.150E-01    0.705E-02
DAV:  14    -0.332211758003E+03    0.29476E-04   -0.81390E-04 18368   0.938E-02
   2 F= -.33221176E+03 E0= -.33220897E+03  d E =-.166036E+00
 trial-energy change:   -0.166036  1 .order   -0.134456   -1.351173    1.082261
 step:   0.5743(harm=  0.5553)  dis= 0.02919  next Energy=  -332.439686 (dE=-0.394E+00)
 bond charge predicted
       N       E                     dE             d eps       ncg     rms          rms(c)
DAV:   1    -0.332796596751E+03   -0.58481E+00   -0.29457E+01 18408   0.225E+01    0.701E+00
DAV:   2    -0.332817040055E+03   -0.20443E-01   -0.48113E+00 25728   0.934E+00    0.509E+00
DAV:   3    -0.332757692535E+03    0.59348E-01   -0.52117E+00 22912   0.733E+00    0.408E+00
DAV:   4    -0.332552450735E+03    0.20524E+00   -0.18377E+00 23976   0.443E+00    0.225E+00
DAV:   5    -0.332465759929E+03    0.86691E-01   -0.90153E-01 23096   0.306E+00    0.132E+00
DAV:   6    -0.332439891408E+03    0.25869E-01   -0.26481E-01 23472   0.166E+00    0.844E-01
DAV:   7    -0.332439699082E+03    0.19233E-03   -0.98665E-02 24768   0.921E-01    0.627E-01
DAV:   8    -0.332437598264E+03    0.21008E-02   -0.34046E-02 22712   0.587E-01    0.418E-01
DAV:   9    -0.332438175077E+03   -0.57681E-03   -0.13200E-02 22600   0.337E-01    0.306E-01
DAV:  10    -0.332439377826E+03   -0.12027E-02   -0.12465E-02 23616   0.326E-01    0.253E-01
DAV:  11    -0.332439374942E+03    0.28839E-05   -0.64190E-03 23648   0.235E-01    0.120E-01
DAV:  12    -0.332439423775E+03   -0.48833E-04   -0.19410E-03 23864   0.133E-01    0.735E-02
DAV:  13    -0.332439433322E+03   -0.95467E-05   -0.88555E-04 19976   0.847E-02
   3 F= -.33243943E+03 E0= -.33243677E+03  d E =-.393711E+00
 curvature:  -0.28 expect dE=-0.241E+00 dE for cont linesearch -0.495E-04
 trial: gam= 0.63325 g(F)=  0.402E+00 g(S)=  0.469E+00 ort = 0.155E-01 (trialstep = 0.863E+00)
 search vector abs. value=  0.143E+01
 bond charge predicted
       N       E                     dE             d eps       ncg     rms          rms(c)
DAV:   1    -0.332659773639E+03   -0.22035E+00   -0.10602E+02 15120   0.311E+01    0.417E+00
DAV:   2    -0.333024974649E+03   -0.36520E+00   -0.62643E+00 24288   0.951E+00    0.338E+00
DAV:   3    -0.332987311823E+03    0.37663E-01   -0.20571E+00 22512   0.461E+00    0.264E+00
DAV:   4    -0.332907514243E+03    0.79798E-01   -0.57131E-01 22824   0.256E+00    0.162E+00
DAV:   5    -0.332896923014E+03    0.10591E-01   -0.30195E-01 22920   0.171E+00    0.127E+00
DAV:   6    -0.332882695378E+03    0.14228E-01   -0.16252E-01 23360   0.134E+00    0.714E-01
DAV:   7    -0.332878315442E+03    0.43799E-02   -0.76544E-02 23944   0.980E-01    0.581E-01
DAV:   8    -0.332874279499E+03    0.40359E-02   -0.36449E-02 24520   0.573E-01    0.346E-01
DAV:   9    -0.332873875801E+03    0.40370E-03   -0.78911E-03 22256   0.253E-01    0.227E-01
DAV:  10    -0.332874046201E+03   -0.17040E-03   -0.30742E-03 21928   0.180E-01    0.147E-01
DAV:  11    -0.332874180469E+03   -0.13427E-03   -0.38582E-03 21408   0.187E-01    0.117E-01
DAV:  12    -0.332873945767E+03    0.23470E-03   -0.18062E-03 20408   0.133E-01    0.372E-02
DAV:  13    -0.332873914848E+03    0.30919E-04   -0.17245E-04 11080   0.543E-02
   4 F= -.33287391E+03 E0= -.33286942E+03  d E =-.434482E+00
 trial-energy change:   -0.434482  1 .order   -0.432999   -0.760145   -0.105853
 step:   1.0002(harm=  1.0024)  dis= 0.07005  next Energy=  -332.882351 (dE=-0.443E+00)
 bond charge predicted
       N       E                     dE             d eps       ncg     rms          rms(c)
DAV:   1    -0.332877679572E+03   -0.37338E-02   -0.26932E+00 15320   0.492E+00    0.624E-01
DAV:   2    -0.332886482060E+03   -0.88025E-02   -0.15522E-01 24000   0.151E+00    0.546E-01
DAV:   3    -0.332884616319E+03    0.18657E-02   -0.50776E-02 22720   0.695E-01    0.380E-01
DAV:   4    -0.332883168970E+03    0.14473E-02   -0.12728E-02 22632   0.383E-01    0.244E-01
DAV:   5    -0.332882924749E+03    0.24422E-03   -0.73131E-03 22560   0.270E-01    0.190E-01
DAV:   6    -0.332882531702E+03    0.39305E-03   -0.35628E-03 23384   0.200E-01    0.981E-02
DAV:   7    -0.332882446605E+03    0.85097E-04   -0.13650E-03 19616   0.133E-01    0.856E-02
DAV:   8    -0.332882369473E+03    0.77132E-04   -0.66738E-04 16816   0.888E-02
   5 F= -.33288237E+03 E0= -.33287761E+03  d E =-.442936E+00
 curvature:  -0.81 expect dE=-0.873E-01 dE for cont linesearch -0.227E-06
 trial: gam= 0.02723 g(F)=  0.920E-01 g(S)=  0.152E-01 ort = 0.631E-03 (trialstep = 0.890E+00)
 search vector abs. value=  0.108E+00
 bond charge predicted
       N       E                     dE             d eps       ncg     rms          rms(c)
DAV:   1    -0.332940131041E+03   -0.57684E-01   -0.96182E+00 15120   0.105E+01    0.224E+00
DAV:   2    -0.332963996397E+03   -0.23865E-01   -0.78984E-01 22336   0.337E+00    0.143E+00
DAV:   3    -0.332963714381E+03    0.28202E-03   -0.47699E-01 22416   0.223E+00    0.124E+00
DAV:   4    -0.332940894079E+03    0.22820E-01   -0.17766E-01 22288   0.136E+00    0.577E-01
DAV:   5    -0.332938304614E+03    0.25895E-02   -0.71362E-02 22704   0.887E-01    0.454E-01
DAV:   6    -0.332934443834E+03    0.38608E-02   -0.24908E-02 23536   0.538E-01    0.181E-01
DAV:   7    -0.332934511025E+03   -0.67191E-04   -0.51215E-03 24160   0.221E-01    0.148E-01
DAV:   8    -0.332934476447E+03    0.34579E-04   -0.19994E-03 20784   0.139E-01    0.119E-01
DAV:   9    -0.332934515584E+03   -0.39137E-04   -0.10173E-03 18688   0.956E-02    0.972E-02
DAV:  10    -0.332934570650E+03   -0.55066E-04   -0.73652E-04 17256   0.917E-02
   6 F= -.33293457E+03 E0= -.33293011E+03  d E =-.522012E-01
 trial-energy change:   -0.052201  1 .order   -0.053118   -0.095397   -0.010838
 step:   1.0135(harm=  1.0044)  dis= 0.02123  next Energy=  -332.935318 (dE=-0.529E-01)
 bond charge predicted
       N       E                     dE             d eps       ncg     rms          rms(c)
DAV:   1    -0.332935264687E+03   -0.74910E-03   -0.18440E-01 15504   0.145E+00    0.314E-01
DAV:   2    -0.332935640611E+03   -0.37592E-03   -0.14733E-02 21328   0.468E-01    0.195E-01
DAV:   3    -0.332935646500E+03   -0.58888E-05   -0.91966E-03 21640   0.309E-01    0.172E-01
DAV:   4    -0.332935215994E+03    0.43051E-03   -0.39465E-03 20856   0.201E-01    0.815E-02
DAV:   5    -0.332935141919E+03    0.74075E-04   -0.12379E-03 18680   0.120E-01    0.578E-02
DAV:   6    -0.332935078007E+03    0.63911E-04   -0.35243E-04 12888   0.768E-02
   7 F= -.33293508E+03 E0= -.33293067E+03  d E =-.527085E-01
 curvature:  -0.50 expect dE=-0.582E-01 dE for cont linesearch -0.129E-04
 trial: gam= 1.09506 g(F)=  0.187E-01 g(S)=  0.967E-01 ort =-0.167E-02 (trialstep = 0.410E+00)
 search vector abs. value=  0.242E+00
 bond charge predicted
       N       E                     dE             d eps       ncg     rms          rms(c)
DAV:   1    -0.332971073598E+03   -0.35932E-01   -0.42606E+00 15120   0.715E+00    0.150E+00
DAV:   2    -0.332979381816E+03   -0.83082E-02   -0.35904E-01 21968   0.228E+00    0.888E-01
DAV:   3    -0.332982149283E+03   -0.27675E-02   -0.19660E-01 22528   0.149E+00    0.924E-01
DAV:   4    -0.332970266651E+03    0.11883E-01   -0.10173E-01 22008   0.109E+00    0.481E-01
DAV:   5    -0.332966807639E+03    0.34590E-02   -0.40008E-02 22808   0.634E-01    0.268E-01
DAV:   6    -0.332965890279E+03    0.91736E-03   -0.12117E-02 24192   0.337E-01    0.159E-01
DAV:   7    -0.332965811988E+03    0.78291E-04   -0.40308E-03 21872   0.199E-01    0.114E-01
DAV:   8    -0.332965716301E+03    0.95687E-04   -0.14409E-03 20536   0.120E-01    0.792E-02
DAV:   9    -0.332965729597E+03   -0.13296E-04   -0.29965E-04 12464   0.618E-02
   8 F= -.33296573E+03 E0= -.33296165E+03  d E =-.306516E-01
 trial-energy change:   -0.030652  1 .order   -0.030978   -0.046585   -0.015371
 step:   0.6116(harm=  0.6116)  dis= 0.02064  next Energy=  -332.969840 (dE=-0.348E-01)
 bond charge predicted
       N       E                     dE             d eps       ncg     rms          rms(c)
DAV:   1    -0.332970175095E+03   -0.44588E-02   -0.10349E+00 15120   0.352E+00    0.745E-01
DAV:   2    -0.332971982022E+03   -0.18069E-02   -0.84436E-02 21440   0.112E+00    0.434E-01
DAV:   3    -0.332972828093E+03   -0.84607E-03   -0.48177E-02 22408   0.749E-01    0.451E-01
DAV:   4    -0.332969834647E+03    0.29934E-02   -0.24173E-02 21912   0.534E-01    0.225E-01
DAV:   5    -0.332969082697E+03    0.75195E-03   -0.92338E-03 22912   0.306E-01    0.129E-01
DAV:   6    -0.332968895254E+03    0.18744E-03   -0.26138E-03 22216   0.156E-01    0.806E-02
DAV:   7    -0.332968883502E+03    0.11752E-04   -0.77843E-04 18056   0.918E-02
   9 F= -.33296888E+03 E0= -.33296498E+03  d E =-.338055E-01
 curvature:  -0.65 expect dE=-0.120E-01 dE for cont linesearch -0.461E-04
 trial: gam= 0.16006 g(F)=  0.172E-01 g(S)=  0.131E-02 ort =-0.414E-02 (trialstep = 0.450E+00)
 search vector abs. value=  0.233E-01
 bond charge predicted
       N       E                     dE             d eps       ncg     rms          rms(c)
DAV:   1    -0.332975074000E+03   -0.61787E-02   -0.44884E-01 16560   0.203E+00    0.193E-01
DAV:   2    -0.332976375055E+03   -0.13011E-02   -0.20389E-02 24936   0.611E-01    0.175E-01
DAV:   3    -0.332976212596E+03    0.16246E-03   -0.58053E-03 23192   0.231E-01    0.127E-01
DAV:   4    -0.332976017235E+03    0.19536E-03   -0.16481E-03 20584   0.135E-01    0.799E-02
DAV:   5    -0.332975984436E+03    0.32799E-04   -0.96286E-04 17544   0.100E-01
  10 F= -.33297598E+03 E0= -.33297212E+03  d E =-.710093E-02
 ZBRENT: can't locate minimum, use default step
 trial-energy change:   -0.007101  1 .order   -0.007093   -0.008023   -0.006164
 step:   1.8007(harm=  1.9428)  dis= 0.01798  next Energy=  -332.986195 (dE=-0.173E-01)
 bond charge predicted
       N       E                     dE             d eps       ncg     rms          rms(c)
DAV:   1    -0.332977559321E+03   -0.15421E-02   -0.40305E+00 16528   0.608E+00    0.549E-01
DAV:   2    -0.332989237189E+03   -0.11678E-01   -0.18089E-01 24736   0.182E+00    0.525E-01
DAV:   3    -0.332987802626E+03    0.14346E-02   -0.49227E-02 23672   0.664E-01    0.376E-01
DAV:   4    -0.332986024929E+03    0.17777E-02   -0.13217E-02 23528   0.383E-01    0.224E-01
DAV:   5    -0.332985837558E+03    0.18737E-03   -0.84773E-03 22008   0.288E-01    0.192E-01
DAV:   6    -0.332985236405E+03    0.60115E-03   -0.44299E-03 21976   0.208E-01    0.833E-02
DAV:   7    -0.332985184653E+03    0.51751E-04   -0.10676E-03 19080   0.112E-01    0.602E-02
DAV:   8    -0.332985114841E+03    0.69812E-04   -0.36905E-04 13808   0.770E-02
  11 F= -.33298511E+03 E0= -.33298153E+03  d E =-.162313E-01
 curvature:  -1.26 expect dE=-0.701E-02 dE for cont linesearch -0.641E-07
 trial: gam= 0.22995 g(F)=  0.355E-02 g(S)=  0.201E-02 ort = 0.345E-04 (trialstep = 0.720E+00)
 search vector abs. value=  0.681E-02
 bond charge predicted
       N       E                     dE             d eps       ncg     rms          rms(c)
DAV:   1    -0.332988847949E+03   -0.36633E-02   -0.40435E-01 15336   0.247E+00    0.635E-01
DAV:   2    -0.332989193707E+03   -0.34576E-03   -0.48286E-02 22432   0.872E-01    0.347E-01
DAV:   3    -0.332989150453E+03    0.43254E-04   -0.31027E-02 22040   0.586E-01    0.313E-01
DAV:   4    -0.332987542438E+03    0.16080E-02   -0.13217E-02 22040   0.378E-01    0.142E-01
DAV:   5    -0.332987291410E+03    0.25103E-03   -0.38345E-03 22744   0.208E-01    0.104E-01
DAV:   6    -0.332987131698E+03    0.15971E-03   -0.13979E-03 20600   0.124E-01    0.500E-02
DAV:   7    -0.332987122497E+03    0.92003E-05   -0.20244E-04 11048   0.563E-02
  12 F= -.33298712E+03 E0= -.33298359E+03  d E =-.200766E-02
 trial-energy change:   -0.002008  1 .order   -0.002085   -0.004011   -0.000159
 step:   0.7500(harm=  0.7500)  dis= 0.00263  next Energy=  -332.987203 (dE=-0.209E-02)
 bond charge predicted
       N       E                     dE             d eps       ncg     rms          rms(c)
DAV:   1    -0.332987127045E+03    0.46528E-05   -0.80267E-04 16552   0.114E-01    0.340E-02
DAV:   2    -0.332987153198E+03   -0.26154E-04   -0.22554E-04 11568   0.662E-02
  13 F= -.33298715E+03 E0= -.33298363E+03  d E =-.203836E-02
 curvature:  -0.46 expect dE=-0.202E-02 dE for cont linesearch -0.474E-06
 trial: gam= 0.80879 g(F)=  0.146E-02 g(S)=  0.294E-02 ort =-0.839E-04 (trialstep = 0.567E+00)
 search vector abs. value=  0.872E-02
 bond charge predicted
       N       E                     dE             d eps       ncg     rms          rms(c)
DAV:   1    -0.332988259320E+03   -0.11323E-02   -0.31477E-01 15624   0.187E+00    0.242E-01
DAV:   2    -0.332989660749E+03   -0.14014E-02   -0.21432E-02 23104   0.559E-01    0.204E-01
DAV:   3    -0.332989446859E+03    0.21389E-03   -0.66061E-03 22016   0.272E-01    0.155E-01
DAV:   4    -0.332989174046E+03    0.27281E-03   -0.21234E-03 20696   0.160E-01    0.914E-02
DAV:   5    -0.332989148093E+03    0.25953E-04   -0.14398E-03 19432   0.120E-01    0.715E-02
DAV:   6    -0.332989073525E+03    0.74568E-04   -0.66557E-04 15984   0.900E-02
  14 F= -.33298907E+03 E0= -.33298558E+03  d E =-.192033E-02
 trial-energy change:   -0.001920  1 .order   -0.001860   -0.002456   -0.001264
 step:   1.1694(harm=  1.1694)  dis= 0.00526  next Energy=  -332.989684 (dE=-0.253E-02)
 bond charge predicted
       N       E                     dE             d eps       ncg     rms          rms(c)
DAV:   1    -0.332988577329E+03    0.57076E-03   -0.35159E-01 15576   0.199E+00    0.257E-01
DAV:   2    -0.332990075427E+03   -0.14981E-02   -0.23127E-02 21984   0.584E-01    0.202E-01
DAV:   3    -0.332989952799E+03    0.12263E-03   -0.74753E-03 21832   0.297E-01    0.159E-01
DAV:   4    -0.332989655795E+03    0.29700E-03   -0.25471E-03 20968   0.174E-01    0.920E-02
DAV:   5    -0.332989605920E+03    0.49875E-04   -0.15332E-03 19872   0.123E-01    0.661E-02
DAV:   6    -0.332989545001E+03    0.60919E-04   -0.52552E-04 14784   0.830E-02
  15 F= -.33298955E+03 E0= -.33298608E+03  d E =-.239180E-02
 curvature:  -1.18 expect dE=-0.185E-02 dE for cont linesearch -0.215E-04
 trial: gam= 0.53416 g(F)=  0.126E-02 g(S)=  0.318E-03 ort =-0.399E-03 (trialstep = 0.688E+00)
 search vector abs. value=  0.364E-02
 bond charge predicted
       N       E                     dE             d eps       ncg     rms          rms(c)
DAV:   1    -0.332989525121E+03    0.80799E-04   -0.20460E-01 16464   0.149E+00    0.130E-01
DAV:   2    -0.332990404920E+03   -0.87980E-03   -0.10577E-02 24048   0.419E-01    0.108E-01
DAV:   3    -0.332990371701E+03    0.33219E-04   -0.17688E-03 22376   0.131E-01    0.893E-02
DAV:   4    -0.332990282987E+03    0.88714E-04   -0.39675E-04 13832   0.736E-02
  16 F= -.33299028E+03 E0= -.33298685E+03  d E =-.737986E-03
 trial-energy change:   -0.000738  1 .order   -0.000796   -0.000937   -0.000655
 step:   2.2864(harm=  2.2864)  dis= 0.00653  next Energy=  -332.991102 (dE=-0.156E-02)
 bond charge predicted
       N       E                     dE             d eps       ncg     rms          rms(c)
DAV:   1    -0.332986470668E+03    0.39010E-02   -0.11012E+00 16288   0.346E+00    0.298E-01
DAV:   2    -0.332991000528E+03   -0.45299E-02   -0.54592E-02 23856   0.968E-01    0.223E-01
DAV:   3    -0.332990985458E+03    0.15070E-04   -0.52114E-03 23856   0.239E-01    0.182E-01
DAV:   4    -0.332990713064E+03    0.27239E-03   -0.22135E-03 20656   0.157E-01    0.133E-01
DAV:   5    -0.332990721166E+03   -0.81016E-05   -0.15617E-03 19952   0.132E-01    0.108E-01
DAV:   6    -0.332990499258E+03    0.22191E-03   -0.11744E-03 18608   0.120E-01    0.347E-02
DAV:   7    -0.332990489863E+03    0.93952E-05   -0.21965E-04 11688   0.645E-02
  17 F= -.33299049E+03 E0= -.33298711E+03  d E =-.944861E-03
 curvature:  -3.05 expect dE=-0.546E-02 dE for cont linesearch -0.144E-03
 trial: gam= 0.00000 g(F)=  0.112E-02 g(S)=  0.673E-03 ort =-0.414E-03 (trialstep = 0.101E+01)
 search vector abs. value=  0.179E-02
 reached required accuracy - stopping structural energy minimisation
 writing wavefunctions
VASP is done!
