<?xml version="1.0" encoding="ISO-8859-1"?>
<modeling>
 <generator>
  <i name="program" type="string">vasp </i>
  <i name="version" type="string">5.4.4.18Apr17-6-g9f103f2a35  </i>
  <i name="subversion" type="string">(build Aug 09 2018 16:20:53) complex            parallel </i>
  <i name="platform" type="string">LinuxIFC </i>
  <i name="date" type="string">2020 04 12 </i>
  <i name="time" type="string">21:22:55 </i>
 </generator>
 <incar>
  <i type="string" name="SYSTEM"> SQS with 1 vacancy for VFE and VRV</i>
  <i type="string" name="PREC">normal</i>
  <i type="int" name="IALGO">    38</i>
  <i type="int" name="ICHARG">     2</i>
  <i type="int" name="IBRION">     2</i>
  <i type="int" name="NSW">    20</i>
  <i type="int" name="ISIF">     3</i>
  <i type="int" name="ISYM">     0</i>
  <i name="ENCUT">    600.00000000</i>
  <i type="string" name="LREAL"> Auto</i>
  <i type="int" name="ISMEAR">     1</i>
  <i name="SIGMA">      0.20000000</i>
  <v type="int" name="KPOINT_BSE">    -1     0     0     0</v>
  <i type="string" name="GGA"> PS</i>
 </incar>
 <structure name="primitive_cell" >
  <crystal>
   <varray name="basis" >
    <v>      -3.19000000      -3.19000000      -3.19000000 </v>
    <v>       1.59500000       1.59500000      -7.97500000 </v>
    <v>       7.97500000      -7.97500000      -1.59500000 </v>
   </varray>
   <i name="volume">    486.92638500 </i>
   <varray name="rec_basis" >
    <v>      -0.13584117      -0.12539185      -0.05224660 </v>
    <v>       0.04179728       0.06269592      -0.10449321 </v>
    <v>       0.06269592      -0.06269592       0.00000000 </v>
   </varray>
  </crystal>
  <varray name="positions" >
   <v>      -0.03333333      -0.06666667       0.40000000 </v>
   <v>       0.30000000      -0.40000000       0.40000000 </v>
   <v>      -0.10000000      -0.20000000       0.20000000 </v>
   <v>       0.06666667       0.13333333       0.20000000 </v>
   <v>       0.46666667      -0.06666667       0.40000000 </v>
   <v>      -0.13333333      -0.26666667      -0.40000000 </v>
   <v>       0.03333333       0.06666667      -0.40000000 </v>
   <v>      -0.36666667       0.26666667       0.40000000 </v>
   <v>       0.40000000      -0.20000000       0.20000000 </v>
   <v>      -0.20000000      -0.40000000       0.40000000 </v>
   <v>      -0.43333333       0.13333333       0.20000000 </v>
   <v>       0.36666667      -0.26666667      -0.40000000 </v>
   <v>       0.13333333       0.26666667       0.40000000 </v>
   <v>      -0.46666667       0.06666667      -0.40000000 </v>
   <v>       0.23333333       0.46666667       0.20000000 </v>
   <v>       0.20000000       0.40000000      -0.40000000 </v>
   <v>       0.00000000       0.00000000       0.00000000 </v>
   <v>      -0.06666667      -0.13333333      -0.20000000 </v>
   <v>      -0.30000000       0.40000000      -0.40000000 </v>
   <v>      -0.26666667       0.46666667       0.20000000 </v>
   <v>       0.33333333      -0.33333333       0.00000000 </v>
   <v>       0.43333333      -0.13333333      -0.20000000 </v>
   <v>       0.26666667      -0.46666667      -0.20000000 </v>
   <v>      -0.33333333       0.33333333       0.00000000 </v>
   <v>      -0.40000000       0.20000000      -0.20000000 </v>
   <v>      -0.16666667      -0.33333333       0.00000000 </v>
   <v>      -0.23333333      -0.46666667      -0.20000000 </v>
   <v>       0.16666667       0.33333333       0.00000000 </v>
   <v>       0.10000000       0.20000000      -0.20000000 </v>
  </varray>
 </structure>
 <varray name="primitive_index" >
  <v type="int" >        1 </v>
  <v type="int" >       17 </v>
  <v type="int" >        6 </v>
  <v type="int" >       23 </v>
  <v type="int" >       19 </v>
  <v type="int" >       18 </v>
  <v type="int" >        5 </v>
  <v type="int" >        2 </v>
  <v type="int" >       15 </v>
  <v type="int" >        7 </v>
  <v type="int" >       14 </v>
  <v type="int" >       10 </v>
  <v type="int" >       11 </v>
  <v type="int" >       27 </v>
  <v type="int" >       29 </v>
  <v type="int" >       22 </v>
  <v type="int" >        3 </v>
  <v type="int" >       13 </v>
  <v type="int" >       25 </v>
  <v type="int" >        8 </v>
  <v type="int" >       28 </v>
  <v type="int" >       16 </v>
  <v type="int" >       21 </v>
  <v type="int" >        9 </v>
  <v type="int" >       26 </v>
  <v type="int" >       12 </v>
  <v type="int" >       24 </v>
  <v type="int" >       20 </v>
  <v type="int" >        4 </v>
 </varray>
 <kpoints>
  <generation param="Gamma">
   <v type="int" name="divisions">       5        5        5 </v>
   <v name="usershift">      0.00000000       0.00000000       0.00000000 </v>
   <v name="genvec1">      0.20000000      -0.00000000      -0.00000000 </v>
   <v name="genvec2">      0.00000000       0.20000000       0.00000000 </v>
   <v name="genvec3">      0.00000000       0.00000000       0.20000000 </v>
   <v name="shift">      0.00000000       0.00000000       0.00000000 </v>
  </generation>
  <varray name="kpointlist" >
   <v>       0.00000000       0.00000000       0.00000000 </v>
   <v>       0.20000000      -0.00000000       0.00000000 </v>
   <v>       0.40000000      -0.00000000       0.00000000 </v>
   <v>       0.00000000       0.20000000       0.00000000 </v>
   <v>       0.20000000       0.20000000      -0.00000000 </v>
   <v>       0.40000000       0.20000000      -0.00000000 </v>
   <v>      -0.40000000       0.20000000      -0.00000000 </v>
   <v>      -0.20000000       0.20000000       0.00000000 </v>
   <v>       0.00000000       0.40000000       0.00000000 </v>
   <v>       0.20000000       0.40000000       0.00000000 </v>
   <v>       0.40000000       0.40000000      -0.00000000 </v>
   <v>      -0.40000000       0.40000000       0.00000000 </v>
   <v>      -0.20000000       0.40000000       0.00000000 </v>
   <v>       0.00000000       0.00000000       0.20000000 </v>
   <v>       0.20000000      -0.00000000       0.20000000 </v>
   <v>       0.40000000       0.00000000       0.20000000 </v>
   <v>      -0.40000000       0.00000000       0.20000000 </v>
   <v>      -0.20000000       0.00000000       0.20000000 </v>
   <v>       0.00000000       0.20000000       0.20000000 </v>
   <v>       0.20000000       0.20000000       0.20000000 </v>
   <v>       0.40000000       0.20000000       0.20000000 </v>
   <v>      -0.40000000       0.20000000       0.20000000 </v>
   <v>      -0.20000000       0.20000000       0.20000000 </v>
   <v>       0.00000000       0.40000000       0.20000000 </v>
   <v>       0.20000000       0.40000000       0.20000000 </v>
   <v>       0.40000000       0.40000000       0.20000000 </v>
   <v>      -0.40000000       0.40000000       0.20000000 </v>
   <v>      -0.20000000       0.40000000       0.20000000 </v>
   <v>       0.00000000      -0.40000000       0.20000000 </v>
   <v>       0.20000000      -0.40000000       0.20000000 </v>
   <v>       0.40000000      -0.40000000       0.20000000 </v>
   <v>      -0.40000000      -0.40000000       0.20000000 </v>
   <v>      -0.20000000      -0.40000000       0.20000000 </v>
   <v>       0.00000000      -0.20000000       0.20000000 </v>
   <v>       0.20000000      -0.20000000       0.20000000 </v>
   <v>       0.40000000      -0.20000000       0.20000000 </v>
   <v>      -0.40000000      -0.20000000       0.20000000 </v>
   <v>      -0.20000000      -0.20000000       0.20000000 </v>
   <v>       0.00000000       0.00000000       0.40000000 </v>
   <v>       0.20000000      -0.00000000       0.40000000 </v>
   <v>       0.40000000      -0.00000000       0.40000000 </v>
   <v>      -0.40000000       0.00000000       0.40000000 </v>
   <v>      -0.20000000       0.00000000       0.40000000 </v>
   <v>      -0.00000000       0.20000000       0.40000000 </v>
   <v>       0.20000000       0.20000000       0.40000000 </v>
   <v>       0.40000000       0.20000000       0.40000000 </v>
   <v>      -0.40000000       0.20000000       0.40000000 </v>
   <v>      -0.20000000       0.20000000       0.40000000 </v>
   <v>       0.00000000       0.40000000       0.40000000 </v>
   <v>       0.20000000       0.40000000       0.40000000 </v>
   <v>       0.40000000       0.40000000       0.40000000 </v>
   <v>      -0.40000000       0.40000000       0.40000000 </v>
   <v>      -0.20000000       0.40000000       0.40000000 </v>
   <v>       0.00000000      -0.40000000       0.40000000 </v>
   <v>       0.20000000      -0.40000000       0.40000000 </v>
   <v>       0.40000000      -0.40000000       0.40000000 </v>
   <v>      -0.40000000      -0.40000000       0.40000000 </v>
   <v>      -0.20000000      -0.40000000       0.40000000 </v>
   <v>       0.00000000      -0.20000000       0.40000000 </v>
   <v>       0.20000000      -0.20000000       0.40000000 </v>
   <v>       0.40000000      -0.20000000       0.40000000 </v>
   <v>      -0.40000000      -0.20000000       0.40000000 </v>
   <v>      -0.20000000      -0.20000000       0.40000000 </v>
  </varray>
  <varray name="weights" >
   <v>       0.00800000 </v>
   <v>       0.01600000 </v>
   <v>       0.01600000 </v>
   <v>       0.01600000 </v>
   <v>       0.01600000 </v>
   <v>       0.01600000 </v>
   <v>       0.01600000 </v>
   <v>       0.01600000 </v>
   <v>       0.01600000 </v>
   <v>       0.01600000 </v>
   <v>       0.01600000 </v>
   <v>       0.01600000 </v>
   <v>       0.01600000 </v>
   <v>       0.01600000 </v>
   <v>       0.01600000 </v>
   <v>       0.01600000 </v>
   <v>       0.01600000 </v>
   <v>       0.01600000 </v>
   <v>       0.01600000 </v>
   <v>       0.01600000 </v>
   <v>       0.01600000 </v>
   <v>       0.01600000 </v>
   <v>       0.01600000 </v>
   <v>       0.01600000 </v>
   <v>       0.01600000 </v>
   <v>       0.01600000 </v>
   <v>       0.01600000 </v>
   <v>       0.01600000 </v>
   <v>       0.01600000 </v>
   <v>       0.01600000 </v>
   <v>       0.01600000 </v>
   <v>       0.01600000 </v>
   <v>       0.01600000 </v>
   <v>       0.01600000 </v>
   <v>       0.01600000 </v>
   <v>       0.01600000 </v>
   <v>       0.01600000 </v>
   <v>       0.01600000 </v>
   <v>       0.01600000 </v>
   <v>       0.01600000 </v>
   <v>       0.01600000 </v>
   <v>       0.01600000 </v>
   <v>       0.01600000 </v>
   <v>       0.01600000 </v>
   <v>       0.01600000 </v>
   <v>       0.01600000 </v>
   <v>       0.01600000 </v>
   <v>       0.01600000 </v>
   <v>       0.01600000 </v>
   <v>       0.01600000 </v>
   <v>       0.01600000 </v>
   <v>       0.01600000 </v>
   <v>       0.01600000 </v>
   <v>       0.01600000 </v>
   <v>       0.01600000 </v>
   <v>       0.01600000 </v>
   <v>       0.01600000 </v>
   <v>       0.01600000 </v>
   <v>       0.01600000 </v>
   <v>       0.01600000 </v>
   <v>       0.01600000 </v>
   <v>       0.01600000 </v>
   <v>       0.01600000 </v>
  </varray>
 </kpoints>
 <parameters>
  <separator name="general" >
   <i type="string" name="SYSTEM">SQS with 1 vacancy for VFE and VRV</i>
   <i type="logical" name="LCOMPAT"> F  </i>
  </separator>
  <separator name="electronic" >
   <i type="string" name="PREC">normal</i>
   <i name="ENMAX">    600.00000000</i>
   <i name="ENAUG">    455.65900000</i>
   <i name="EDIFF">      0.00010000</i>
   <i type="int" name="IALGO">    38</i>
   <i type="int" name="IWAVPR">    11</i>
   <i type="int" name="NBANDS">   120</i>
   <i name="NELECT">    191.00000000</i>
   <i type="int" name="TURBO">     0</i>
   <i type="int" name="IRESTART">     0</i>
   <i type="int" name="NREBOOT">     0</i>
   <i type="int" name="NMIN">     0</i>
   <i name="EREF">      0.00000000</i>
   <separator name="electronic smearing" >
    <i type="int" name="ISMEAR">     1</i>
    <i name="SIGMA">      0.20000000</i>
    <i name="KSPACING">      0.50000000</i>
    <i type="logical" name="KGAMMA"> T  </i>
   </separator>
   <separator name="electronic projectors" >
    <i type="logical" name="LREAL"> T  </i>
    <v name="ROPT">     -0.00050000     -0.00050000     -0.00050000     -0.00050000     -0.00050000</v>
    <i type="int" name="LMAXPAW">  -100</i>
    <i type="int" name="LMAXMIX">     2</i>
    <i type="logical" name="NLSPLINE"> F  </i>
   </separator>
   <separator name="electronic startup" >
    <i type="int" name="ISTART">     0</i>
    <i type="int" name="ICHARG">     2</i>
    <i type="int" name="INIWAV">     1</i>
   </separator>
   <separator name="electronic spin" >
    <i type="int" name="ISPIN">     1</i>
    <i type="logical" name="LNONCOLLINEAR"> F  </i>
    <v name="MAGMOM">      1.00000000      1.00000000      1.00000000      1.00000000      1.00000000      1.00000000      1.00000000      1.00000000      1.00000000      1.00000000      1.00000000      1.00000000      1.00000000      1.00000000      1.00000000      1.00000000      1.00000000      1.00000000      1.00000000      1.00000000
      1.00000000      1.00000000      1.00000000      1.00000000      1.00000000      1.00000000      1.00000000      1.00000000      1.00000000</v>
    <i name="NUPDOWN">     -1.00000000</i>
    <i type="logical" name="LSORBIT"> F  </i>
    <v name="SAXIS">      0.00000000      0.00000000      1.00000000</v>
    <i type="logical" name="LSPIRAL"> F  </i>
    <v name="QSPIRAL">      0.00000000      0.00000000      0.00000000</v>
    <i type="logical" name="LZEROZ"> F  </i>
   </separator>
   <separator name="electronic exchange-correlation" >
    <i type="logical" name="LASPH"> F  </i>
    <i type="logical" name="LMETAGGA"> F  </i>
   </separator>
   <separator name="electronic convergence" >
    <i type="int" name="NELM">    60</i>
    <i type="int" name="NELMDL">    -5</i>
    <i type="int" name="NELMIN">     2</i>
    <i name="ENINI">    600.00000000</i>
    <separator name="electronic convergence detail" >
     <i type="logical" name="LDIAG"> T  </i>
     <i type="logical" name="LSUBROT"> F  </i>
     <i name="WEIMIN">      0.00100000</i>
     <i name="EBREAK">      0.00000021</i>
     <i name="DEPER">      0.30000000</i>
     <i type="int" name="NRMM">     4</i>
     <i name="TIME">      0.40000000</i>
    </separator>
   </separator>
   <separator name="electronic mixer" >
    <i name="AMIX">      0.40000000</i>
    <i name="BMIX">      1.00000000</i>
    <i name="AMIN">      0.10000000</i>
    <i name="AMIX_MAG">      1.60000000</i>
    <i name="BMIX_MAG">      1.00000000</i>
    <separator name="electronic mixer details" >
     <i type="int" name="IMIX">     4</i>
     <i type="logical" name="MIXFIRST"> F  </i>
     <i type="int" name="MAXMIX">   -45</i>
     <i name="WC">    100.00000000</i>
     <i type="int" name="INIMIX">     1</i>
     <i type="int" name="MIXPRE">     1</i>
     <i type="int" name="MREMOVE">     5</i>
    </separator>
   </separator>
   <separator name="electronic dipolcorrection" >
    <i type="logical" name="LDIPOL"> F  </i>
    <i type="logical" name="LMONO"> F  </i>
    <i type="int" name="IDIPOL">     0</i>
    <i name="EPSILON">      1.00000000</i>
    <v name="DIPOL">   -100.00000000   -100.00000000   -100.00000000</v>
    <i name="EFIELD">      0.00000000</i>
   </separator>
  </separator>
  <separator name="grids" >
   <i type="int" name="NGX">    36</i>
   <i type="int" name="NGY">    50</i>
   <i type="int" name="NGZ">    70</i>
   <i type="int" name="NGXF">    72</i>
   <i type="int" name="NGYF">   100</i>
   <i type="int" name="NGZF">   140</i>
   <i type="logical" name="ADDGRID"> F  </i>
  </separator>
  <separator name="ionic" >
   <i type="int" name="NSW">    20</i>
   <i type="int" name="IBRION">     2</i>
   <i type="int" name="MDALGO">     0</i>
   <i type="int" name="ISIF">     3</i>
   <i name="PSTRESS">      0.00000000</i>
   <i name="EDIFFG">      0.00100000</i>
   <i type="int" name="NFREE">     1</i>
   <i name="POTIM">      0.50000000</i>
   <i name="SMASS">     -3.00000000</i>
   <i name="SCALEE">      1.00000000</i>
  </separator>
  <separator name="ionic md" >
   <i name="TEBEG">      0.00010000</i>
   <i name="TEEND">      0.00010000</i>
   <i type="int" name="NBLOCK">     1</i>
   <i type="int" name="KBLOCK">    20</i>
   <i type="int" name="NPACO">   256</i>
   <i name="APACO">     16.00000000</i>
  </separator>
  <separator name="symmetry" >
   <i type="int" name="ISYM">     0</i>
   <i name="SYMPREC">      0.00001000</i>
  </separator>
  <separator name="dos" >
   <i type="int" name="LORBIT">     0</i>
   <v name="RWIGS">     -1.00000000     -1.00000000     -1.00000000     -1.00000000     -1.00000000</v>
   <i type="int" name="NEDOS">   301</i>
   <i name="EMIN">     10.00000000</i>
   <i name="EMAX">    -10.00000000</i>
   <i name="EFERMI">      0.00000000</i>
  </separator>
  <separator name="writing" >
   <i type="int" name="NWRITE">     2</i>
   <i type="logical" name="LWAVE"> T  </i>
   <i type="logical" name="LDOWNSAMPLE"> F  </i>
   <i type="logical" name="LCHARG"> T  </i>
   <i type="logical" name="LPARD"> F  </i>
   <i type="logical" name="LVTOT"> F  </i>
   <i type="logical" name="LVHAR"> F  </i>
   <i type="logical" name="LELF"> F  </i>
   <i type="logical" name="LOPTICS"> F  </i>
   <v name="STM">      0.00000000      0.00000000      0.00000000      0.00000000      0.00000000      0.00000000      0.00000000</v>
  </separator>
  <separator name="performance" >
   <i type="int" name="NPAR">     8</i>
   <i type="int" name="NSIM">     4</i>
   <i type="int" name="NBLK">    -1</i>
   <i type="logical" name="LPLANE"> T  </i>
   <i type="logical" name="LSCALAPACK"> T  </i>
   <i type="logical" name="LSCAAWARE"> F  </i>
   <i type="logical" name="LSCALU"> F  </i>
   <i type="logical" name="LASYNC"> F  </i>
   <i type="logical" name="LORBITALREAL"> F  </i>
  </separator>
  <separator name="miscellaneous" >
   <i type="int" name="IDIOT">     3</i>
   <i type="int" name="ISPECIAL">     0</i>
   <i type="logical" name="LMUSIC"> F  </i>
   <v name="POMASS">     92.91000000     95.94000000    180.94800000     47.88000000    183.85000000</v>
   <v name="DARWINR">      0.00000000      0.00000000      0.00000000      0.00000000      0.00000000</v>
   <v name="DARWINV">      1.00000000      1.00000000      1.00000000      1.00000000      1.00000000</v>
   <i type="logical" name="LCORR"> T  </i>
  </separator>
  <i type="logical" name="GGA_COMPAT"> T  </i>
  <i type="logical" name="LBERRY"> F  </i>
  <i type="int" name="ICORELEVEL">     0</i>
  <i type="logical" name="LDAU"> F  </i>
  <i type="int" name="I_CONSTRAINED_M">     0</i>
  <separator name="electronic exchange-correlation" >
   <i type="string" name="GGA">PS</i>
   <i type="int" name="VOSKOWN">     0</i>
   <i type="logical" name="LHFCALC"> F  </i>
   <i type="string" name="PRECFOCK"></i>
   <i type="logical" name="LSYMGRAD"> F  </i>
   <i type="logical" name="LHFONE"> F  </i>
   <i type="logical" name="LRHFCALC"> F  </i>
   <i type="logical" name="LTHOMAS"> F  </i>
   <i type="logical" name="LMODELHF"> F  </i>
   <i name="ENCUT4O">     -1.00000000</i>
   <i type="int" name="EXXOEP">     0</i>
   <i type="int" name="FOURORBIT">     0</i>
   <i name="AEXX">      0.00000000</i>
   <i name="HFALPHA">      0.00000000</i>
   <i name="MCALPHA">      0.00000000</i>
   <i name="ALDAX">      1.00000000</i>
   <i name="AGGAX">      1.00000000</i>
   <i name="ALDAC">      1.00000000</i>
   <i name="AGGAC">      1.00000000</i>
   <i type="int" name="NKREDX">     1</i>
   <i type="int" name="NKREDY">     1</i>
   <i type="int" name="NKREDZ">     1</i>
   <i type="logical" name="SHIFTRED"> F  </i>
   <i type="logical" name="ODDONLY"> F  </i>
   <i type="logical" name="EVENONLY"> F  </i>
   <i type="int" name="LMAXFOCK">     0</i>
   <i type="int" name="NMAXFOCKAE">     0</i>
   <i type="logical" name="LFOCKAEDFT"> F  </i>
   <i name="HFSCREEN">      0.00000000</i>
   <i name="HFSCREENC">      0.00000000</i>
   <i type="int" name="NBANDSGWLOW">     0</i>
  </separator>
  <separator name="vdW DFT" >
   <i type="logical" name="LUSE_VDW"> F  </i>
   <i name="Zab_VDW">     -0.84910000</i>
   <i name="PARAM1">      0.12340000</i>
   <i name="PARAM2">      1.00000000</i>
   <i name="PARAM3">      0.00000000</i>
  </separator>
  <separator name="model GW" >
   <i type="int" name="MODEL_GW">     0</i>
   <i name="MODEL_EPS0">     10.07433900</i>
   <i name="MODEL_ALPHA">      1.00000000</i>
  </separator>
  <separator name="linear response parameters" >
   <i type="logical" name="LEPSILON"> F  </i>
   <i type="logical" name="LRPA"> F  </i>
   <i type="logical" name="LNABLA"> F  </i>
   <i type="logical" name="LVEL"> F  </i>
   <i type="int" name="KINTER">     0</i>
   <i name="CSHIFT">      0.10000000</i>
   <i name="OMEGAMAX">     -1.00000000</i>
   <i name="DEG_THRESHOLD">      0.00200000</i>
   <i name="RTIME">     -0.10000000</i>
   <i name="WPLASMAI">      0.00000000</i>
   <v name="DFIELD">      0.00000000      0.00000000      0.00000000</v>
   <v name="WPLASMA">      0.00000000      0.00000000      0.00000000      0.00000000      0.00000000      0.00000000      0.00000000      0.00000000      0.00000000</v>
  </separator>
  <separator name="orbital magnetization" >
   <i type="logical" name="NUCIND"> F  </i>
   <v name="MAGPOS">      0.00000000      0.00000000      0.00000000</v>
   <i type="logical" name="LNICSALL"> T  </i>
   <i type="logical" name="ORBITALMAG"> F  </i>
   <i type="logical" name="LMAGBLOCH"> F  </i>
   <i type="logical" name="LCHIMAG"> F  </i>
   <i type="logical" name="LGAUGE"> T  </i>
   <i type="int" name="MAGATOM">     0</i>
   <v name="MAGDIPOL">      0.00000000      0.00000000      0.00000000</v>
   <v name="AVECCONST">      0.00000000      0.00000000      0.00000000</v>
  </separator>
  <separator name="response functions" >
   <i type="logical" name="LADDER"> F  </i>
   <i type="logical" name="LRPAFORCE"> F  </i>
   <i type="logical" name="LFXC"> F  </i>
   <i type="logical" name="LHARTREE"> T  </i>
   <i type="int" name="IBSE">     0</i>
   <v type="int" name="KPOINT">    -1     0     0     0</v>
   <i type="logical" name="LTCTE"> F  </i>
   <i type="logical" name="LTETE"> F  </i>
   <i type="logical" name="LTRIPLET"> F  </i>
   <i type="logical" name="LFXCEPS"> F  </i>
   <i type="logical" name="LFXHEG"> F  </i>
   <i type="int" name="NATURALO">     2</i>
   <i type="logical" name="L2ORDER"> F  </i>
   <i type="logical" name="LMP2LT"> F  </i>
   <i type="logical" name="LUSEW"> F  </i>
   <i name="ENCUTGW">     -2.00000000</i>
   <i name="ENCUTGWSOFT">     -2.00000000</i>
   <i name="ENCUTLF">     -1.00000000</i>
   <i type="int" name="LMAXMP2">    -1</i>
   <i name="SCISSOR">      0.00000000</i>
   <i type="int" name="NOMEGA">     0</i>
   <i type="int" name="NOMEGAR">     0</i>
   <i type="int" name="NBANDSGW">    -1</i>
   <i type="int" name="NBANDSO">    -1</i>
   <i type="int" name="NBANDSV">    -1</i>
   <i type="int" name="NELM">     1</i>
   <i type="int" name="NELMHF">     1</i>
   <i type="int" name="DIM">     3</i>
   <i type="int" name="ANTIRES">     0</i>
   <i name="OMEGAMAX">    -30.00000000</i>
   <i name="OMEGAMIN">    -30.00000000</i>
   <i name="OMEGATL">   -200.00000000</i>
   <i type="int" name="OMEGAGRID">   140</i>
   <i name="CSHIFT">     -0.10000000</i>
   <i type="logical" name="SELFENERGY"> F  </i>
   <i type="logical" name="LSPECTRAL"> F  </i>
   <i type="logical" name="LSPECTRALGW"> F  </i>
   <i type="logical" name="LSINGLES"> F  </i>
   <i type="logical" name="LFERMIGW"> F  </i>
   <i type="logical" name="ODDONLYGW"> F  </i>
   <i type="logical" name="EVENONLYGW"> F  </i>
   <i type="int" name="NKREDLFX">     1</i>
   <i type="int" name="NKREDLFY">     1</i>
   <i type="int" name="NKREDLFZ">     1</i>
   <i type="int" name="MAXMEM">  2800</i>
   <i type="int" name="TELESCOPE">     0</i>
   <i type="int" name="TAUPAR">     1</i>
   <i type="int" name="OMEGAPAR">    -1</i>
   <i name="LAMBDA">      1.00000000</i>
  </separator>
  <separator name="External order field" >
   <i name="OFIELD_KAPPA">      0.00000000</i>
   <v name="OFIELD_K">      0.00000000      0.00000000      0.00000000</v>
   <i name="OFIELD_Q6_NEAR">      0.00000000</i>
   <i name="OFIELD_Q6_FAR">      0.00000000</i>
   <i name="OFIELD_A">      0.00000000</i>
  </separator>
  <separator name="solvation model" >
   <i type="logical" name="LSOL"> F  </i>
  </separator>
 </parameters>
 <atominfo>
  <atoms>      29 </atoms>
  <types>       5 </types>
  <array name="atoms" >
   <dimension dim="1">ion</dimension>
   <field type="string">element</field>
   <field type="int">atomtype</field>
   <set>
    <rc><c>Nb</c><c>   1</c></rc>
    <rc><c>Nb</c><c>   1</c></rc>
    <rc><c>Nb</c><c>   1</c></rc>
    <rc><c>Nb</c><c>   1</c></rc>
    <rc><c>Nb</c><c>   1</c></rc>
    <rc><c>Mo</c><c>   2</c></rc>
    <rc><c>Mo</c><c>   2</c></rc>
    <rc><c>Mo</c><c>   2</c></rc>
    <rc><c>Mo</c><c>   2</c></rc>
    <rc><c>Mo</c><c>   2</c></rc>
    <rc><c>Mo</c><c>   2</c></rc>
    <rc><c>Ta</c><c>   3</c></rc>
    <rc><c>Ta</c><c>   3</c></rc>
    <rc><c>Ta</c><c>   3</c></rc>
    <rc><c>Ta</c><c>   3</c></rc>
    <rc><c>Ta</c><c>   3</c></rc>
    <rc><c>Ta</c><c>   3</c></rc>
    <rc><c>Ti</c><c>   4</c></rc>
    <rc><c>Ti</c><c>   4</c></rc>
    <rc><c>Ti</c><c>   4</c></rc>
    <rc><c>Ti</c><c>   4</c></rc>
    <rc><c>Ti</c><c>   4</c></rc>
    <rc><c>Ti</c><c>   4</c></rc>
    <rc><c>W </c><c>   5</c></rc>
    <rc><c>W </c><c>   5</c></rc>
    <rc><c>W </c><c>   5</c></rc>
    <rc><c>W </c><c>   5</c></rc>
    <rc><c>W </c><c>   5</c></rc>
    <rc><c>W </c><c>   5</c></rc>
   </set>
  </array>
  <array name="atomtypes" >
   <dimension dim="1">type</dimension>
   <field type="int">atomspertype</field>
   <field type="string">element</field>
   <field>mass</field>
   <field>valence</field>
   <field type="string">pseudopotential</field>
   <set>
    <rc><c>   5</c><c>Nb</c><c>     92.91000000</c><c>     13.00000000</c><c>  PAW_PBE Nb_sv 25May2007               </c></rc>
    <rc><c>   6</c><c>Mo</c><c>     95.94000000</c><c>      6.00000000</c><c>  PAW_PBE Mo 08Apr2002                  </c></rc>
    <rc><c>   6</c><c>Ta</c><c>    180.94800000</c><c>      5.00000000</c><c>  PAW_PBE Ta 17Jan2003                  </c></rc>
    <rc><c>   6</c><c>Ti</c><c>     47.88000000</c><c>      4.00000000</c><c>  PAW_PBE Ti 08Apr2002                  </c></rc>
    <rc><c>   6</c><c>W </c><c>    183.85000000</c><c>      6.00000000</c><c>  PAW_PBE W 08Apr2002                   </c></rc>
   </set>
  </array>
 </atominfo>
 <structure name="initialpos" >
  <crystal>
   <varray name="basis" >
    <v>      -3.19000000      -3.19000000      -3.19000000 </v>
    <v>       1.59500000       1.59500000      -7.97500000 </v>
    <v>       7.97500000      -7.97500000      -1.59500000 </v>
   </varray>
   <i name="volume">    486.92638500 </i>
   <varray name="rec_basis" >
    <v>      -0.13584117      -0.12539185      -0.05224660 </v>
    <v>       0.04179728       0.06269592      -0.10449321 </v>
    <v>       0.06269592      -0.06269592       0.00000000 </v>
   </varray>
  </crystal>
  <varray name="positions" >
   <v>       0.96666667       0.93333333       0.40000000 </v>
   <v>       0.63333333       0.26666667       0.40000000 </v>
   <v>       0.00000000       0.00000000       0.00000000 </v>
   <v>       0.10000000       0.20000000       0.80000000 </v>
   <v>       0.03333333       0.06666667       0.60000000 </v>
   <v>       0.90000000       0.80000000       0.20000000 </v>
   <v>       0.80000000       0.60000000       0.40000000 </v>
   <v>       0.73333333       0.46666667       0.20000000 </v>
   <v>       0.66666667       0.33333333       0.00000000 </v>
   <v>       0.36666667       0.73333333       0.60000000 </v>
   <v>       0.13333333       0.26666667       0.40000000 </v>
   <v>       0.83333333       0.66666667       0.00000000 </v>
   <v>       0.93333333       0.86666667       0.80000000 </v>
   <v>       0.56666667       0.13333333       0.20000000 </v>
   <v>       0.40000000       0.80000000       0.20000000 </v>
   <v>       0.43333333       0.86666667       0.80000000 </v>
   <v>       0.30000000       0.60000000       0.40000000 </v>
   <v>       0.86666667       0.73333333       0.60000000 </v>
   <v>       0.46666667       0.93333333       0.40000000 </v>
   <v>       0.16666667       0.33333333       0.00000000 </v>
   <v>       0.26666667       0.53333333       0.80000000 </v>
   <v>       0.20000000       0.40000000       0.60000000 </v>
   <v>       0.06666667       0.13333333       0.20000000 </v>
   <v>       0.76666667       0.53333333       0.80000000 </v>
   <v>       0.70000000       0.40000000       0.60000000 </v>
   <v>       0.60000000       0.20000000       0.80000000 </v>
   <v>       0.53333333       0.06666667       0.60000000 </v>
   <v>       0.33333333       0.66666667       0.00000000 </v>
   <v>       0.23333333       0.46666667       0.20000000 </v>
  </varray>
 </structure>
 <calculation>
  <scstep>
   <time name="dav">   18.61   18.70</time>
   <time name="total">   18.65   18.76</time>
   <energy>
    <i name="alphaZ">   1248.41475165 </i>
    <i name="ewald"> -10656.21760639 </i>
    <i name="hartreedc">  -2750.99228841 </i>
    <i name="XCdc">   -962.18757355 </i>
    <i name="pawpsdc">  11070.58973812 </i>
    <i name="pawaedc">  -9526.02277447 </i>
    <i name="eentropy">      0.00360674 </i>
    <i name="bandstr">   1857.11277722 </i>
    <i name="atom">  11656.65998444 </i>
    <i name="e_fr_energy">   1937.36061535 </i>
    <i name="e_wo_entrp">   1937.35700861 </i>
    <i name="e_0_energy">   1937.35941310 </i>
   </energy>
  </scstep>
  <scstep>
   <time name="dav">   18.41   18.46</time>
   <time name="total">   18.42   18.46</time>
   <energy>
    <i name="e_fr_energy">     27.33206646 </i>
    <i name="e_wo_entrp">     27.33184841 </i>
    <i name="e_0_energy">     27.33199378 </i>
   </energy>
  </scstep>
  <scstep>
   <time name="dav">   29.16   29.23</time>
   <time name="total">   29.16   29.23</time>
   <energy>
    <i name="e_fr_energy">   -310.59526617 </i>
    <i name="e_wo_entrp">   -310.59776741 </i>
    <i name="e_0_energy">   -310.59609992 </i>
   </energy>
  </scstep>
  <scstep>
   <time name="dav">   26.59   26.66</time>
   <time name="total">   26.60   26.66</time>
   <energy>
    <i name="e_fr_energy">   -350.30695807 </i>
    <i name="e_wo_entrp">   -350.31120259 </i>
    <i name="e_0_energy">   -350.30837291 </i>
   </energy>
  </scstep>
  <scstep>
   <time name="dav">   30.55   30.61</time>
   <time name="total">   31.15   31.21</time>
   <energy>
    <i name="e_fr_energy">   -354.27356644 </i>
    <i name="e_wo_entrp">   -354.27982786 </i>
    <i name="e_0_energy">   -354.27565358 </i>
   </energy>
  </scstep>
  <scstep>
   <time name="dav">   24.02   24.07</time>
   <time name="total">   24.65   24.70</time>
   <energy>
    <i name="e_fr_energy">   -344.05395642 </i>
    <i name="e_wo_entrp">   -344.05289904 </i>
    <i name="e_0_energy">   -344.05360396 </i>
   </energy>
  </scstep>
  <scstep>
   <time name="dav">   24.89   24.93</time>
   <time name="total">   25.52   25.57</time>
   <energy>
    <i name="e_fr_energy">   -360.24793205 </i>
    <i name="e_wo_entrp">   -360.23821978 </i>
    <i name="e_0_energy">   -360.24469463 </i>
   </energy>
  </scstep>
  <scstep>
   <time name="dav">   26.17   26.20</time>
   <time name="total">   26.80   26.84</time>
   <energy>
    <i name="e_fr_energy">   -349.64489119 </i>
    <i name="e_wo_entrp">   -349.64200821 </i>
    <i name="e_0_energy">   -349.64393019 </i>
   </energy>
  </scstep>
  <scstep>
   <time name="dav">   24.42   24.44</time>
   <time name="total">   25.04   25.06</time>
   <energy>
    <i name="e_fr_energy">   -338.82156619 </i>
    <i name="e_wo_entrp">   -338.82527385 </i>
    <i name="e_0_energy">   -338.82280208 </i>
   </energy>
  </scstep>
  <scstep>
   <time name="dav">   25.60   25.62</time>
   <time name="total">   26.22   26.25</time>
   <energy>
    <i name="e_fr_energy">   -335.21284802 </i>
    <i name="e_wo_entrp">   -335.21729930 </i>
    <i name="e_0_energy">   -335.21433178 </i>
   </energy>
  </scstep>
  <scstep>
   <time name="dav">   25.27   25.32</time>
   <time name="total">   25.90   25.96</time>
   <energy>
    <i name="e_fr_energy">   -333.04005227 </i>
    <i name="e_wo_entrp">   -333.04240734 </i>
    <i name="e_0_energy">   -333.04083729 </i>
   </energy>
  </scstep>
  <scstep>
   <time name="dav">   24.91   24.94</time>
   <time name="total">   25.53   25.57</time>
   <energy>
    <i name="e_fr_energy">   -332.32527548 </i>
    <i name="e_wo_entrp">   -332.32031781 </i>
    <i name="e_0_energy">   -332.32362292 </i>
   </energy>
  </scstep>
  <scstep>
   <time name="dav">   24.84   24.88</time>
   <time name="total">   25.47   25.50</time>
   <energy>
    <i name="e_fr_energy">   -332.14332939 </i>
    <i name="e_wo_entrp">   -332.13675269 </i>
    <i name="e_0_energy">   -332.14113716 </i>
   </energy>
  </scstep>
  <scstep>
   <time name="dav">   24.91   24.93</time>
   <time name="total">   25.53   25.57</time>
   <energy>
    <i name="e_fr_energy">   -332.06481860 </i>
    <i name="e_wo_entrp">   -332.05685331 </i>
    <i name="e_0_energy">   -332.06216350 </i>
   </energy>
  </scstep>
  <scstep>
   <time name="dav">   25.51   25.54</time>
   <time name="total">   26.14   26.17</time>
   <energy>
    <i name="e_fr_energy">   -332.07291015 </i>
    <i name="e_wo_entrp">   -332.06279437 </i>
    <i name="e_0_energy">   -332.06953822 </i>
   </energy>
  </scstep>
  <scstep>
   <time name="dav">   25.87   25.90</time>
   <time name="total">   26.59   26.62</time>
   <energy>
    <i name="e_fr_energy">   -332.05866633 </i>
    <i name="e_wo_entrp">   -332.04939473 </i>
    <i name="e_0_energy">   -332.05557579 </i>
   </energy>
  </scstep>
  <scstep>
   <time name="dav">   25.26   25.28</time>
   <time name="total">   25.88   25.92</time>
   <energy>
    <i name="e_fr_energy">   -332.04967854 </i>
    <i name="e_wo_entrp">   -332.04055166 </i>
    <i name="e_0_energy">   -332.04663624 </i>
   </energy>
  </scstep>
  <scstep>
   <time name="dav">   25.13   25.16</time>
   <time name="total">   25.75   25.78</time>
   <energy>
    <i name="e_fr_energy">   -332.04632328 </i>
    <i name="e_wo_entrp">   -332.03769312 </i>
    <i name="e_0_energy">   -332.04344656 </i>
   </energy>
  </scstep>
  <scstep>
   <time name="dav">   25.39   25.42</time>
   <time name="total">   26.01   26.04</time>
   <energy>
    <i name="e_fr_energy">   -332.04594828 </i>
    <i name="e_wo_entrp">   -332.03741241 </i>
    <i name="e_0_energy">   -332.04310299 </i>
   </energy>
  </scstep>
  <scstep>
   <time name="dav">   23.90   23.92</time>
   <time name="total">   24.52   24.56</time>
   <energy>
    <i name="e_fr_energy">   -332.04586940 </i>
    <i name="e_wo_entrp">   -332.03714397 </i>
    <i name="e_0_energy">   -332.04296093 </i>
   </energy>
  </scstep>
  <scstep>
   <time name="dav">   23.59   23.61</time>
   <time name="total">   24.21   24.24</time>
   <energy>
    <i name="e_fr_energy">   -332.04581652 </i>
    <i name="e_wo_entrp">   -332.03725415 </i>
    <i name="e_0_energy">   -332.04296240 </i>
   </energy>
  </scstep>
  <scstep>
   <time name="dav">   21.48   21.50</time>
   <time name="total">   22.10   22.13</time>
   <energy>
    <i name="e_fr_energy">   -332.04574656 </i>
    <i name="e_wo_entrp">   -332.03705799 </i>
    <i name="e_0_energy">   -332.04285037 </i>
   </energy>
  </scstep>
  <scstep>
   <time name="dav">   14.64   14.66</time>
   <time name="total">   14.67   14.71</time>
   <energy>
    <i name="alphaZ">   1248.41475165 </i>
    <i name="ewald"> -10656.21760639 </i>
    <i name="hartreedc">  -2612.32696679 </i>
    <i name="XCdc">   -955.35355331 </i>
    <i name="pawpsdc">  19638.35245612 </i>
    <i name="pawaedc"> -18099.49798361 </i>
    <i name="eentropy">     -0.00867783 </i>
    <i name="bandstr">   -552.06812660 </i>
    <i name="atom">  11656.65998444 </i>
    <i name="e_fr_energy">   -332.04572231 </i>
    <i name="e_wo_entrp">   -332.03704448 </i>
    <i name="e_0_energy">   -332.04282970 </i>
   </energy>
  </scstep>
  <structure>
   <crystal>
    <varray name="basis" >
     <v>      -3.19000000      -3.19000000      -3.19000000 </v>
     <v>       1.59500000       1.59500000      -7.97500000 </v>
     <v>       7.97500000      -7.97500000      -1.59500000 </v>
    </varray>
    <i name="volume">    486.92638500 </i>
    <varray name="rec_basis" >
     <v>      -0.13584117      -0.12539185      -0.05224660 </v>
     <v>       0.04179728       0.06269592      -0.10449321 </v>
     <v>       0.06269592      -0.06269592       0.00000000 </v>
    </varray>
   </crystal>
   <varray name="positions" >
    <v>       0.96666667       0.93333333       0.40000000 </v>
    <v>       0.63333333       0.26666667       0.40000000 </v>
    <v>       0.00000000       0.00000000       0.00000000 </v>
    <v>       0.10000000       0.20000000       0.80000000 </v>
    <v>       0.03333333       0.06666667       0.60000000 </v>
    <v>       0.90000000       0.80000000       0.20000000 </v>
    <v>       0.80000000       0.60000000       0.40000000 </v>
    <v>       0.73333333       0.46666667       0.20000000 </v>
    <v>       0.66666667       0.33333333       0.00000000 </v>
    <v>       0.36666667       0.73333333       0.60000000 </v>
    <v>       0.13333333       0.26666667       0.40000000 </v>
    <v>       0.83333333       0.66666667       0.00000000 </v>
    <v>       0.93333333       0.86666667       0.80000000 </v>
    <v>       0.56666667       0.13333333       0.20000000 </v>
    <v>       0.40000000       0.80000000       0.20000000 </v>
    <v>       0.43333333       0.86666667       0.80000000 </v>
    <v>       0.30000000       0.60000000       0.40000000 </v>
    <v>       0.86666667       0.73333333       0.60000000 </v>
    <v>       0.46666667       0.93333333       0.40000000 </v>
    <v>       0.16666667       0.33333333       0.00000000 </v>
    <v>       0.26666667       0.53333333       0.80000000 </v>
    <v>       0.20000000       0.40000000       0.60000000 </v>
    <v>       0.06666667       0.13333333       0.20000000 </v>
    <v>       0.76666667       0.53333333       0.80000000 </v>
    <v>       0.70000000       0.40000000       0.60000000 </v>
    <v>       0.60000000       0.20000000       0.80000000 </v>
    <v>       0.53333333       0.06666667       0.60000000 </v>
    <v>       0.33333333       0.66666667       0.00000000 </v>
    <v>       0.23333333       0.46666667       0.20000000 </v>
   </varray>
  </structure>
  <varray name="forces" >
   <v>      -0.27567349       0.60959290       0.25305480 </v>
   <v>       0.22762795      -0.18784003       0.12670193 </v>
   <v>       0.24225404      -0.16245235       0.15770935 </v>
   <v>       0.24988263       0.45456984      -0.49654597 </v>
   <v>      -0.35648117      -0.06179854      -0.15799033 </v>
   <v>       0.12718913      -0.51213280       0.01344557 </v>
   <v>      -0.46188790      -0.07675263       0.49253514 </v>
   <v>      -0.16412067       0.19232504      -0.02676635 </v>
   <v>      -0.05979979       0.31483639      -0.69598813 </v>
   <v>      -0.28165362      -0.23443687       0.40505531 </v>
   <v>      -0.08644491       0.21740722      -0.49241929 </v>
   <v>       0.75381119      -0.08588641      -0.32314649 </v>
   <v>       0.16301605       0.32787966      -0.32179793 </v>
   <v>      -0.93513527       0.74175757       0.52779807 </v>
   <v>      -1.25366144       0.45481503       0.01231008 </v>
   <v>      -0.20961393      -0.43665817       0.21469747 </v>
   <v>       0.50836549      -0.41982188      -0.31059039 </v>
   <v>       0.23706066       0.41915380       0.17909315 </v>
   <v>       0.38482951      -0.39301801       0.13139179 </v>
   <v>      -0.38945210      -0.64546304       0.37577498 </v>
   <v>      -0.06382618      -0.14681021      -0.29176032 </v>
   <v>      -0.32804374      -0.03501795       0.59815118 </v>
   <v>       1.05367285      -0.06773990      -0.66691602 </v>
   <v>      -0.07748647      -0.28817818       0.57467819 </v>
   <v>       0.78768095       0.16299296      -0.78241585 </v>
   <v>      -0.07426291       0.21723658       0.01236332 </v>
   <v>       0.19517410      -0.42278716      -0.42373118 </v>
   <v>       0.05994348      -0.31661733       0.94257229 </v>
   <v>       0.02703553       0.38084447      -0.02726436 </v>
  </varray>
  <varray name="stress" >
   <v>     -36.74043756      -1.19985074       6.09734325 </v>
   <v>      -1.19985064     -37.46370080      -3.92891293 </v>
   <v>       6.09734329      -3.92891299     -33.62831887 </v>
  </varray>
  <energy>
   <i name="e_fr_energy">   -332.04572231 </i>
   <i name="e_wo_entrp">   -332.04282970 </i>
   <i name="e_0_energy">     -0.00867783 </i>
  </energy>
  <time name="totalsc">  589.26  590.34</time>
 </calculation>
 <calculation>
  <scstep>
   <time name="dav">   22.69   22.71</time>
   <time name="total">   23.31   23.34</time>
   <energy>
    <i name="alphaZ">   1319.04612572 </i>
    <i name="ewald"> -10877.85113803 </i>
    <i name="hartreedc">  -2637.10352671 </i>
    <i name="XCdc">   -949.32677910 </i>
    <i name="pawpsdc">  19637.56747113 </i>
    <i name="pawaedc"> -18098.70082630 </i>
    <i name="eentropy">     -0.01101513 </i>
    <i name="bandstr">   -384.54253717 </i>
    <i name="atom">  11656.65998444 </i>
    <i name="e_fr_energy">   -334.26224115 </i>
    <i name="e_wo_entrp">   -334.25122602 </i>
    <i name="e_0_energy">   -334.25856944 </i>
   </energy>
  </scstep>
  <scstep>
   <time name="dav">   27.55   27.58</time>
   <time name="total">   28.17   28.20</time>
   <energy>
    <i name="e_fr_energy">   -334.38526418 </i>
    <i name="e_wo_entrp">   -334.38873777 </i>
    <i name="e_0_energy">   -334.38642204 </i>
   </energy>
  </scstep>
  <scstep>
   <time name="dav">   25.78   25.81</time>
   <time name="total">   26.40   26.44</time>
   <energy>
    <i name="e_fr_energy">   -333.29447033 </i>
    <i name="e_wo_entrp">   -333.28905778 </i>
    <i name="e_0_energy">   -333.29266615 </i>
   </energy>
  </scstep>
  <scstep>
   <time name="dav">   26.91   26.94</time>
   <time name="total">   27.53   27.57</time>
   <energy>
    <i name="e_fr_energy">   -332.77773848 </i>
    <i name="e_wo_entrp">   -332.77676626 </i>
    <i name="e_0_energy">   -332.77741441 </i>
   </energy>
  </scstep>
  <scstep>
   <time name="dav">   26.57   26.60</time>
   <time name="total">   27.19   27.23</time>
   <energy>
    <i name="e_fr_energy">   -332.34244618 </i>
    <i name="e_wo_entrp">   -332.33121440 </i>
    <i name="e_0_energy">   -332.33870225 </i>
   </energy>
  </scstep>
  <scstep>
   <time name="dav">   28.09   28.12</time>
   <time name="total">   28.72   28.76</time>
   <energy>
    <i name="e_fr_energy">   -332.19309546 </i>
    <i name="e_wo_entrp">   -332.18613827 </i>
    <i name="e_0_energy">   -332.19077640 </i>
   </energy>
  </scstep>
  <scstep>
   <time name="dav">   28.49   28.52</time>
   <time name="total">   29.11   29.15</time>
   <energy>
    <i name="e_fr_energy">   -332.21057016 </i>
    <i name="e_wo_entrp">   -332.20291507 </i>
    <i name="e_0_energy">   -332.20801846 </i>
   </energy>
  </scstep>
  <scstep>
   <time name="dav">   27.16   27.19</time>
   <time name="total">   27.79   27.82</time>
   <energy>
    <i name="e_fr_energy">   -332.20157136 </i>
    <i name="e_wo_entrp">   -332.19361839 </i>
    <i name="e_0_energy">   -332.19892037 </i>
   </energy>
  </scstep>
  <scstep>
   <time name="dav">   25.98   26.01</time>
   <time name="total">   26.61   26.64</time>
   <energy>
    <i name="e_fr_energy">   -332.20561245 </i>
    <i name="e_wo_entrp">   -332.19693619 </i>
    <i name="e_0_energy">   -332.20272036 </i>
   </energy>
  </scstep>
  <scstep>
   <time name="dav">   26.62   26.65</time>
   <time name="total">   27.25   27.28</time>
   <energy>
    <i name="e_fr_energy">   -332.21176894 </i>
    <i name="e_wo_entrp">   -332.20381255 </i>
    <i name="e_0_energy">   -332.20911681 </i>
   </energy>
  </scstep>
  <scstep>
   <time name="dav">   26.90   26.92</time>
   <time name="total">   27.52   27.55</time>
   <energy>
    <i name="e_fr_energy">   -332.21142061 </i>
    <i name="e_wo_entrp">   -332.20297174 </i>
    <i name="e_0_energy">   -332.20860432 </i>
   </energy>
  </scstep>
  <scstep>
   <time name="dav">   28.12   28.15</time>
   <time name="total">   28.74   28.84</time>
   <energy>
    <i name="e_fr_energy">   -332.21160610 </i>
    <i name="e_wo_entrp">   -332.20324784 </i>
    <i name="e_0_energy">   -332.20882001 </i>
   </energy>
  </scstep>
  <scstep>
   <time name="dav">   27.71   27.74</time>
   <time name="total">   28.33   28.37</time>
   <energy>
    <i name="e_fr_energy">   -332.21178748 </i>
    <i name="e_wo_entrp">   -332.20341262 </i>
    <i name="e_0_energy">   -332.20899586 </i>
   </energy>
  </scstep>
  <scstep>
   <time name="dav">   22.39   22.42</time>
   <time name="total">   22.42   22.45</time>
   <energy>
    <i name="alphaZ">   1319.04612572 </i>
    <i name="ewald"> -10877.85113803 </i>
    <i name="hartreedc">  -2553.18813090 </i>
    <i name="XCdc">   -951.47369374 </i>
    <i name="pawpsdc">  21456.73001264 </i>
    <i name="pawaedc"> -19918.94194749 </i>
    <i name="eentropy">     -0.00837759 </i>
    <i name="bandstr">   -463.18459305 </i>
    <i name="atom">  11656.65998444 </i>
    <i name="e_fr_energy">   -332.21175800 </i>
    <i name="e_wo_entrp">   -332.20338041 </i>
    <i name="e_0_energy">   -332.20896547 </i>
   </energy>
  </scstep>
  <structure>
   <crystal>
    <varray name="basis" >
     <v>      -3.13864416      -3.12130749      -3.13926195 </v>
     <v>       1.53982096       1.57966323      -7.83766323 </v>
     <v>       7.82678479      -7.82561723      -1.52745687 </v>
    </varray>
    <i name="volume">    460.85278608 </i>
    <varray name="rec_basis" >
     <v>      -0.13832491      -0.12800550      -0.05297512 </v>
     <v>       0.04296166       0.06371768      -0.10630646 </v>
     <v>       0.06384410      -0.06386755      -0.00032927 </v>
    </varray>
   </crystal>
   <varray name="positions" >
    <v>       0.96414785       0.93334559       0.39732241 </v>
    <v>       0.63265854       0.26591881       0.40125663 </v>
    <v>      -0.00100237      -0.00079789       0.00122408 </v>
    <v>       0.09686419       0.20438187       0.79938090 </v>
    <v>       0.03644152       0.06655737       0.59910870 </v>
    <v>       0.90223061       0.79863968       0.20193370 </v>
    <v>       0.80224976       0.59635361       0.39883511 </v>
    <v>       0.73331291       0.46705237       0.19892189 </v>
    <v>       0.66690829       0.33767351      -0.00113313 </v>
    <v>       0.36890966       0.73001442       0.59985719 </v>
    <v>       0.13382584       0.26963224       0.39908096 </v>
    <v>       0.82972739       0.66955588       0.00253976 </v>
    <v>       0.93109271       0.86960928       0.79950135 </v>
    <v>       0.56697754       0.13103060       0.19492804 </v>
    <v>       0.40543336       0.79878569       0.19483251 </v>
    <v>       0.43680730       0.86384098       0.80068672 </v>
    <v>       0.29999096       0.60132097       0.40280741 </v>
    <v>       0.86212616       0.73417631       0.59944924 </v>
    <v>       0.46619104       0.93225823       0.40235269 </v>
    <v>       0.17217629       0.32870146       0.00077434 </v>
    <v>       0.26870842       0.53423136       0.80025100 </v>
    <v>       0.20085396       0.39621731       0.59911371 </v>
    <v>       0.06185234       0.13861502       0.20339185 </v>
    <v>       0.76746924       0.52940849       0.80063726 </v>
    <v>       0.69582417       0.40602546       0.60188944 </v>
    <v>       0.59914139       0.20044499       0.79911833 </v>
    <v>       0.53567985       0.06791749       0.60186910 </v>
    <v>       0.33248003       0.66107836       0.00113895 </v>
    <v>       0.23092106       0.46801053       0.19892986 </v>
   </varray>
  </structure>
  <varray name="forces" >
   <v>      -0.02262889       0.33689202       0.05119363 </v>
   <v>      -0.07530630       0.03887860       0.08806886 </v>
   <v>       0.16990318      -0.12372393      -0.14765432 </v>
   <v>      -0.02232815      -0.03039533      -0.12971270 </v>
   <v>      -0.21132012      -0.03322513      -0.12524310 </v>
   <v>      -0.03538401      -0.17448595      -0.04378556 </v>
   <v>      -0.09235203      -0.00426510       0.08813825 </v>
   <v>      -0.03123398      -0.04405325       0.16894702 </v>
   <v>      -0.08508273       0.04191537      -0.15006528 </v>
   <v>      -0.00608655      -0.12189074       0.13849890 </v>
   <v>       0.01556011      -0.01723374      -0.15089081 </v>
   <v>       0.41833152       0.21522909      -0.36585032 </v>
   <v>       0.07074739      -0.01926089      -0.06484027 </v>
   <v>      -0.63531225       0.75997198       0.66585803 </v>
   <v>      -0.49903088       0.33647998      -0.38267627 </v>
   <v>       0.28233478      -0.34587625      -0.05341633 </v>
   <v>       0.15993338      -0.18931575      -0.15638161 </v>
   <v>       0.06354690       0.22773607       0.07521708 </v>
   <v>       0.08289177      -0.16271630       0.10454609 </v>
   <v>      -0.47639982      -0.62665586       0.43899906 </v>
   <v>       0.03222572       0.00535498      -0.03375318 </v>
   <v>      -0.04087580      -0.00313589       0.24122879 </v>
   <v>       0.53605373       0.00634150      -0.40130362 </v>
   <v>       0.00230371      -0.19214688      -0.05044044 </v>
   <v>       0.23417744       0.09430531      -0.22403475 </v>
   <v>       0.31057410      -0.01271623       0.07845306 </v>
   <v>       0.04380028      -0.11235075      -0.12971342 </v>
   <v>      -0.12718474       0.10446303       0.39921112 </v>
   <v>      -0.06185777       0.04588003       0.07140208 </v>
  </varray>
  <varray name="stress" >
   <v>      90.75090199      -0.36353607       4.13122932 </v>
   <v>      -0.36353602      89.73385352      -1.18433666 </v>
   <v>       4.13122934      -1.18433673      89.77543486 </v>
  </varray>
  <energy>
   <i name="e_fr_energy">   -332.21175800 </i>
   <i name="e_wo_entrp">   -332.20896547 </i>
   <i name="e_0_energy">     -0.00837759 </i>
  </energy>
  <time name="totalsc">  397.67  398.24</time>
 </calculation>
 <calculation>
  <scstep>
   <time name="dav">   22.35   22.38</time>
   <time name="total">   22.97   23.93</time>
   <energy>
    <i name="alphaZ">   1288.33784410 </i>
    <i name="ewald"> -10782.93273296 </i>
    <i name="hartreedc">  -2543.00403616 </i>
    <i name="XCdc">   -954.01763937 </i>
    <i name="pawpsdc">  21456.59776338 </i>
    <i name="pawaedc"> -19918.80214753 </i>
    <i name="eentropy">     -0.00670744 </i>
    <i name="bandstr">   -535.62892520 </i>
    <i name="atom">  11656.65998444 </i>
    <i name="e_fr_energy">   -332.79659675 </i>
    <i name="e_wo_entrp">   -332.78988931 </i>
    <i name="e_0_energy">   -332.79436094 </i>
   </energy>
  </scstep>
  <scstep>
   <time name="dav">   29.66   29.70</time>
   <time name="total">   30.29   30.32</time>
   <energy>
    <i name="e_fr_energy">   -332.81704006 </i>
    <i name="e_wo_entrp">   -332.80722220 </i>
    <i name="e_0_energy">   -332.81376744 </i>
   </energy>
  </scstep>
  <scstep>
   <time name="dav">   26.31   26.34</time>
   <time name="total">   26.94   26.98</time>
   <energy>
    <i name="e_fr_energy">   -332.75769253 </i>
    <i name="e_wo_entrp">   -332.75539988 </i>
    <i name="e_0_energy">   -332.75692832 </i>
   </energy>
  </scstep>
  <scstep>
   <time name="dav">   27.30   27.33</time>
   <time name="total">   27.94   27.97</time>
   <energy>
    <i name="e_fr_energy">   -332.55245073 </i>
    <i name="e_wo_entrp">   -332.54332307 </i>
    <i name="e_0_energy">   -332.54940818 </i>
   </energy>
  </scstep>
  <scstep>
   <time name="dav">   26.09   26.12</time>
   <time name="total">   26.72   26.75</time>
   <energy>
    <i name="e_fr_energy">   -332.46575993 </i>
    <i name="e_wo_entrp">   -332.45971017 </i>
    <i name="e_0_energy">   -332.46374334 </i>
   </energy>
  </scstep>
  <scstep>
   <time name="dav">   26.47   26.50</time>
   <time name="total">   27.09   27.13</time>
   <energy>
    <i name="e_fr_energy">   -332.43989141 </i>
    <i name="e_wo_entrp">   -332.43179637 </i>
    <i name="e_0_energy">   -332.43719306 </i>
   </energy>
  </scstep>
  <scstep>
   <time name="dav">   27.72   27.75</time>
   <time name="total">   28.34   28.37</time>
   <energy>
    <i name="e_fr_energy">   -332.43969908 </i>
    <i name="e_wo_entrp">   -332.43172999 </i>
    <i name="e_0_energy">   -332.43704272 </i>
   </energy>
  </scstep>
  <scstep>
   <time name="dav">   25.70   25.73</time>
   <time name="total">   26.32   26.35</time>
   <energy>
    <i name="e_fr_energy">   -332.43759826 </i>
    <i name="e_wo_entrp">   -332.42948008 </i>
    <i name="e_0_energy">   -332.43489220 </i>
   </energy>
  </scstep>
  <scstep>
   <time name="dav">   25.59   25.62</time>
   <time name="total">   26.21   26.25</time>
   <energy>
    <i name="e_fr_energy">   -332.43817508 </i>
    <i name="e_wo_entrp">   -332.43031732 </i>
    <i name="e_0_energy">   -332.43555582 </i>
   </energy>
  </scstep>
  <scstep>
   <time name="dav">   26.53   26.57</time>
   <time name="total">   27.15   27.19</time>
   <energy>
    <i name="e_fr_energy">   -332.43937783 </i>
    <i name="e_wo_entrp">   -332.43137467 </i>
    <i name="e_0_energy">   -332.43671011 </i>
   </energy>
  </scstep>
  <scstep>
   <time name="dav">   26.58   26.61</time>
   <time name="total">   27.20   27.23</time>
   <energy>
    <i name="e_fr_energy">   -332.43937494 </i>
    <i name="e_wo_entrp">   -332.43140222 </i>
    <i name="e_0_energy">   -332.43671737 </i>
   </energy>
  </scstep>
  <scstep>
   <time name="dav">   26.90   26.93</time>
   <time name="total">   27.53   27.57</time>
   <energy>
    <i name="e_fr_energy">   -332.43942378 </i>
    <i name="e_wo_entrp">   -332.43147368 </i>
    <i name="e_0_energy">   -332.43677374 </i>
   </energy>
  </scstep>
  <scstep>
   <time name="dav">   23.19   23.21</time>
   <time name="total">   23.22   23.24</time>
   <energy>
    <i name="alphaZ">   1288.33784410 </i>
    <i name="ewald"> -10782.93273296 </i>
    <i name="hartreedc">  -2578.28760144 </i>
    <i name="XCdc">   -953.11459435 </i>
    <i name="pawpsdc">  20636.89112320 </i>
    <i name="pawaedc"> -19098.40892517 </i>
    <i name="eentropy">     -0.00799477 </i>
    <i name="bandstr">   -501.57653637 </i>
    <i name="atom">  11656.65998444 </i>
    <i name="e_fr_energy">   -332.43943332 </i>
    <i name="e_wo_entrp">   -332.43143855 </i>
    <i name="e_0_energy">   -332.43676840 </i>
   </energy>
  </scstep>
  <structure>
   <crystal>
    <varray name="basis" >
     <v>      -3.16050685      -3.15055058      -3.16086164 </v>
     <v>       1.56331123       1.58619224      -7.89612886 </v>
     <v>       7.88988148      -7.88921096      -1.55621065 </v>
    </varray>
    <i name="volume">    471.83748020 </i>
    <varray name="rec_basis" >
     <v>      -0.13725632      -0.12687987      -0.05266254 </v>
     <v>       0.04245908       0.06327865      -0.10552654 </v>
     <v>       0.06334996      -0.06336330      -0.00018625 </v>
    </varray>
   </crystal>
   <varray name="positions" >
    <v>       0.96524258       0.93334359       0.39848517 </v>
    <v>       0.63294923       0.26624040       0.40071264 </v>
    <v>      -0.00056965      -0.00045473       0.00069442 </v>
    <v>       0.09822885       0.20248246       0.79964614 </v>
    <v>       0.03509447       0.06660784       0.59949398 </v>
    <v>       0.90126022       0.79922699       0.20109528 </v>
    <v>       0.80127170       0.59793691       0.39934339 </v>
    <v>       0.73332316       0.46688707       0.19938917 </v>
    <v>       0.66680886       0.33579475      -0.00064647 </v>
    <v>       0.36793390       0.73145405       0.59992172 </v>
    <v>       0.13361606       0.26834893       0.39947615 </v>
    <v>       0.83129148       0.66829766       0.00143653 </v>
    <v>       0.93206766       0.86833382       0.79971550 </v>
    <v>       0.56684521       0.13203735       0.19713069 </v>
    <v>       0.40308097       0.79932353       0.19707295 </v>
    <v>       0.43529748       0.86506608       0.80039027 </v>
    <v>       0.29999356       0.60074371       0.40158808 </v>
    <v>       0.86409637       0.73380965       0.59968941 </v>
    <v>       0.46639402       0.93271985       0.40133348 </v>
    <v>       0.16978190       0.33071015       0.00044089 </v>
    <v>       0.26782373       0.53384280       0.80014014 </v>
    <v>       0.20048076       0.39785850       0.59950195 </v>
    <v>       0.06394198       0.13631794       0.20191692 </v>
    <v>       0.76711675       0.53110863       0.80036475 </v>
    <v>       0.69763908       0.40340897       0.60106514 </v>
    <v>       0.59951497       0.20025323       0.79950073 </v>
    <v>       0.53466183       0.06737343       0.60105576 </v>
    <v>       0.33284345       0.66349767       0.00065143 </v>
    <v>       0.23196940       0.46742878       0.19939377 </v>
   </varray>
  </structure>
  <varray name="forces" >
   <v>      -0.14922116       0.46936562       0.15413055 </v>
   <v>       0.06571580      -0.06557057       0.10992888 </v>
   <v>       0.20725713      -0.14743261      -0.00580960 </v>
   <v>       0.10853971       0.19937966      -0.30421331 </v>
   <v>      -0.27846024      -0.04765695      -0.14331642 </v>
   <v>       0.04487282      -0.32476380      -0.00612741 </v>
   <v>      -0.26876547      -0.04177977       0.28115408 </v>
   <v>      -0.09546571       0.06910523       0.07201491 </v>
   <v>      -0.06518927       0.18293643      -0.41911849 </v>
   <v>      -0.15821505      -0.18323247       0.27861900 </v>
   <v>      -0.02301464       0.09181459      -0.32020161 </v>
   <v>       0.58063767       0.06774654      -0.36450065 </v>
   <v>       0.12461873       0.14084289      -0.21502429 </v>
   <v>      -0.78214992       0.75917424       0.62168709 </v>
   <v>      -0.85471619       0.39757424      -0.20820368 </v>
   <v>       0.06119335      -0.36733176       0.07136031 </v>
   <v>       0.33294266      -0.29537933      -0.21524864 </v>
   <v>       0.14682582       0.31973932       0.12485965 </v>
   <v>       0.22281328      -0.27971581       0.12030133 </v>
   <v>      -0.44400384      -0.64874749       0.41100514 </v>
   <v>      -0.02463421      -0.07692320      -0.15543656 </v>
   <v>      -0.18062105      -0.01248480       0.40914743 </v>
   <v>       0.78437257      -0.02953436      -0.52908056 </v>
   <v>      -0.04938455      -0.23385864       0.27446292 </v>
   <v>       0.50744539       0.12747765      -0.50650934 </v>
   <v>       0.12793070       0.09605849       0.05722276 </v>
   <v>       0.12021984      -0.26360391      -0.27537088 </v>
   <v>      -0.04187646      -0.11610035       0.65992695 </v>
   <v>      -0.01966769       0.21290094       0.02234045 </v>
  </varray>
  <varray name="stress" >
   <v>      32.55971115      -0.76276875       5.21026872 </v>
   <v>      -0.76276891      31.52175100      -2.35346272 </v>
   <v>       5.21026876      -2.35346281      33.64333762 </v>
  </varray>
  <energy>
   <i name="e_fr_energy">   -332.43943332 </i>
   <i name="e_wo_entrp">   -332.43676840 </i>
   <i name="e_0_energy">     -0.00799477 </i>
  </energy>
  <time name="totalsc">  366.01  368.28</time>
 </calculation>
 <calculation>
  <scstep>
   <time name="dav">   18.53   18.57</time>
   <time name="total">   19.15   19.19</time>
   <energy>
    <i name="alphaZ">   1273.63395258 </i>
    <i name="ewald"> -10768.70588407 </i>
    <i name="hartreedc">  -2541.72118720 </i>
    <i name="XCdc">   -954.48939300 </i>
    <i name="pawpsdc">  20637.07898899 </i>
    <i name="pawaedc"> -19098.71965502 </i>
    <i name="eentropy">     -0.01172764 </i>
    <i name="bandstr">   -536.38485273 </i>
    <i name="atom">  11656.65998444 </i>
    <i name="e_fr_energy">   -332.65977364 </i>
    <i name="e_wo_entrp">   -332.64804600 </i>
    <i name="e_0_energy">   -332.65586443 </i>
   </energy>
  </scstep>
  <scstep>
   <time name="dav">   27.16   27.21</time>
   <time name="total">   27.78   27.83</time>
   <energy>
    <i name="e_fr_energy">   -333.02497465 </i>
    <i name="e_wo_entrp">   -333.01426701 </i>
    <i name="e_0_energy">   -333.02140543 </i>
   </energy>
  </scstep>
  <scstep>
   <time name="dav">   25.46   25.50</time>
   <time name="total">   26.08   26.13</time>
   <energy>
    <i name="e_fr_energy">   -332.98731182 </i>
    <i name="e_wo_entrp">   -332.97341476 </i>
    <i name="e_0_energy">   -332.98267947 </i>
   </energy>
  </scstep>
  <scstep>
   <time name="dav">   25.77   25.81</time>
   <time name="total">   26.39   26.44</time>
   <energy>
    <i name="e_fr_energy">   -332.90751424 </i>
    <i name="e_wo_entrp">   -332.89440307 </i>
    <i name="e_0_energy">   -332.90314385 </i>
   </energy>
  </scstep>
  <scstep>
   <time name="dav">   25.84   25.89</time>
   <time name="total">   26.46   26.51</time>
   <energy>
    <i name="e_fr_energy">   -332.89692301 </i>
    <i name="e_wo_entrp">   -332.88497916 </i>
    <i name="e_0_energy">   -332.89294173 </i>
   </energy>
  </scstep>
  <scstep>
   <time name="dav">   26.22   26.27</time>
   <time name="total">   26.84   26.89</time>
   <energy>
    <i name="e_fr_energy">   -332.88269538 </i>
    <i name="e_wo_entrp">   -332.86795603 </i>
    <i name="e_0_energy">   -332.87778226 </i>
   </energy>
  </scstep>
  <scstep>
   <time name="dav">   26.83   26.88</time>
   <time name="total">   27.45   27.52</time>
   <energy>
    <i name="e_fr_energy">   -332.87831544 </i>
    <i name="e_wo_entrp">   -332.86562938 </i>
    <i name="e_0_energy">   -332.87408675 </i>
   </energy>
  </scstep>
  <scstep>
   <time name="dav">   27.30   27.35</time>
   <time name="total">   27.92   27.97</time>
   <energy>
    <i name="e_fr_energy">   -332.87427950 </i>
    <i name="e_wo_entrp">   -332.86069487 </i>
    <i name="e_0_energy">   -332.86975129 </i>
   </energy>
  </scstep>
  <scstep>
   <time name="dav">   25.49   25.54</time>
   <time name="total">   26.12   26.17</time>
   <energy>
    <i name="e_fr_energy">   -332.87387580 </i>
    <i name="e_wo_entrp">   -332.86056299 </i>
    <i name="e_0_energy">   -332.86943820 </i>
   </energy>
  </scstep>
  <scstep>
   <time name="dav">   25.02   25.07</time>
   <time name="total">   25.66   25.72</time>
   <energy>
    <i name="e_fr_energy">   -332.87404620 </i>
    <i name="e_wo_entrp">   -332.86049605 </i>
    <i name="e_0_energy">   -332.86952948 </i>
   </energy>
  </scstep>
  <scstep>
   <time name="dav">   24.45   24.49</time>
   <time name="total">   25.07   25.11</time>
   <energy>
    <i name="e_fr_energy">   -332.87418047 </i>
    <i name="e_wo_entrp">   -332.86068332 </i>
    <i name="e_0_energy">   -332.86968142 </i>
   </energy>
  </scstep>
  <scstep>
   <time name="dav">   23.59   23.62</time>
   <time name="total">   24.21   24.24</time>
   <energy>
    <i name="e_fr_energy">   -332.87394577 </i>
    <i name="e_wo_entrp">   -332.86046142 </i>
    <i name="e_0_energy">   -332.86945098 </i>
   </energy>
  </scstep>
  <scstep>
   <time name="dav">   14.96   14.99</time>
   <time name="total">   15.00   15.03</time>
   <energy>
    <i name="alphaZ">   1273.63395258 </i>
    <i name="ewald"> -10768.70588407 </i>
    <i name="hartreedc">  -2558.03629476 </i>
    <i name="XCdc">   -953.99252710 </i>
    <i name="pawpsdc">  20246.09082902 </i>
    <i name="pawaedc"> -18708.05002032 </i>
    <i name="eentropy">     -0.01348044 </i>
    <i name="bandstr">   -520.46047421 </i>
    <i name="atom">  11656.65998444 </i>
    <i name="e_fr_energy">   -332.87391485 </i>
    <i name="e_wo_entrp">   -332.86043441 </i>
    <i name="e_0_energy">   -332.86942137 </i>
   </energy>
  </scstep>
  <structure>
   <crystal>
    <varray name="basis" >
     <v>      -3.18215453      -3.15128359      -3.18218089 </v>
     <v>       1.53723394       1.60631482      -7.93229449 </v>
     <v>       7.91750612      -7.91460744      -1.51680921 </v>
    </varray>
    <i name="volume">    477.28476520 </i>
    <varray name="rec_basis" >
     <v>      -0.13664268      -0.12670067      -0.05213787 </v>
     <v>       0.04275397       0.06290093      -0.10504381 </v>
     <v>       0.06308287      -0.06313536      -0.00056001 </v>
    </varray>
   </crystal>
   <varray name="positions" >
    <v>       0.96188573       0.93364350       0.39537283 </v>
    <v>       0.63230790       0.26528998       0.40175123 </v>
    <v>      -0.00151446      -0.00088977       0.00230492 </v>
    <v>       0.09548753       0.20695476       0.79906934 </v>
    <v>       0.03896696       0.06655712       0.59839523 </v>
    <v>       0.90396643       0.79772852       0.20313789 </v>
    <v>       0.80365565       0.59410191       0.39809718 </v>
    <v>       0.73333346       0.46679560       0.19835946 </v>
    <v>       0.66726342       0.34039653      -0.00191989 </v>
    <v>       0.37043559       0.72763502       0.59990488 </v>
    <v>       0.13423374       0.27159217       0.39867074 </v>
    <v>       0.82642392       0.67270262       0.00419556 </v>
    <v>       0.92984354       0.87149398       0.79940048 </v>
    <v>       0.56611145       0.12864640       0.19025808 </v>
    <v>       0.40931835       0.79909598       0.19091903 </v>
    <v>       0.43865216       0.86233311       0.80189814 </v>
    <v>       0.30011918       0.60223224       0.40479835 </v>
    <v>       0.85878705       0.73482916       0.59892721 </v>
    <v>       0.46607434       0.93125812       0.40395622 </v>
    <v>       0.17789003       0.32385358       0.00140384 </v>
    <v>       0.26983837       0.53477466       0.80041933 </v>
    <v>       0.20115540       0.39361985       0.59856319 </v>
    <v>       0.05811660       0.14287175       0.20594313 </v>
    <v>       0.76847875       0.52703389       0.80119830 </v>
    <v>       0.69286815       0.41019620       0.60311786 </v>
    <v>       0.59767629       0.20072583       0.79909738 </v>
    <v>       0.53726685       0.06879303       0.60310429 </v>
    <v>       0.33178288       0.65713626       0.00146638 </v>
    <v>       0.22957472       0.46859800       0.19818941 </v>
   </varray>
  </structure>
  <varray name="forces" >
   <v>       0.09088874       0.10425582      -0.00163734 </v>
   <v>      -0.17284456       0.16389438       0.02563725 </v>
   <v>       0.01187539      -0.06934188      -0.09138212 </v>
   <v>      -0.13478814      -0.07899910       0.16878113 </v>
   <v>      -0.03748608       0.00157366      -0.08101793 </v>
   <v>      -0.20934044      -0.07048525      -0.01214791 </v>
   <v>       0.02414288       0.02909496      -0.01313355 </v>
   <v>       0.13637985      -0.03758300       0.09160611 </v>
   <v>      -0.11163373      -0.08544483       0.04442756 </v>
   <v>       0.17013469      -0.06248201      -0.04972223 </v>
   <v>       0.09578400      -0.06189993      -0.02676378 </v>
   <v>       0.02868088       0.15321235      -0.07984372 </v>
   <v>       0.01991388      -0.16414662      -0.11066310 </v>
   <v>      -0.21461304       0.44661761       0.33328992 </v>
   <v>       0.04660591       0.04042537      -0.09182078 </v>
   <v>       0.28778458      -0.10812414       0.01640436 </v>
   <v>      -0.20668888       0.12584877      -0.12039342 </v>
   <v>      -0.00228393       0.07613678      -0.00827457 </v>
   <v>      -0.07444691       0.01223641       0.06717273 </v>
   <v>      -0.28104097      -0.38616616       0.15011951 </v>
   <v>       0.04740724       0.00257556       0.09939952 </v>
   <v>       0.01643348       0.01055684       0.06877825 </v>
   <v>       0.30362615       0.04372168      -0.17868285 </v>
   <v>       0.14970745      -0.08420824      -0.35108512 </v>
   <v>       0.00804499      -0.01619165       0.16056857 </v>
   <v>       0.10972444      -0.00200922      -0.04697865 </v>
   <v>       0.04065350      -0.06098199      -0.01773660 </v>
   <v>      -0.06254467       0.21781857       0.01026797 </v>
   <v>      -0.08007670      -0.13990475       0.04483077 </v>
  </varray>
  <varray name="stress" >
   <v>      10.15897088      -0.20932806       2.77185554 </v>
   <v>      -0.20932815       8.37419445       0.41666460 </v>
   <v>       2.77185541       0.41666463       6.79253206 </v>
  </varray>
  <energy>
   <i name="e_fr_energy">   -332.87391485 </i>
   <i name="e_wo_entrp">   -332.86942137 </i>
   <i name="e_0_energy">     -0.01348044 </i>
  </energy>
  <time name="totalsc">  342.09  342.80</time>
 </calculation>
 <calculation>
  <scstep>
   <time name="dav">   18.75   18.78</time>
   <time name="total">   19.37   19.55</time>
   <energy>
    <i name="alphaZ">   1271.31753987 </i>
    <i name="ewald"> -10765.84663331 </i>
    <i name="hartreedc">  -2552.64183478 </i>
    <i name="XCdc">   -954.21084765 </i>
    <i name="pawpsdc">  20246.07557141 </i>
    <i name="pawaedc"> -18708.04849488 </i>
    <i name="eentropy">     -0.01400864 </i>
    <i name="bandstr">   -526.16895602 </i>
    <i name="atom">  11656.65998444 </i>
    <i name="e_fr_energy">   -332.87767957 </i>
    <i name="e_wo_entrp">   -332.86367094 </i>
    <i name="e_0_energy">   -332.87301003 </i>
   </energy>
  </scstep>
  <scstep>
   <time name="dav">   26.94   26.99</time>
   <time name="total">   27.56   27.61</time>
   <energy>
    <i name="e_fr_energy">   -332.88648206 </i>
    <i name="e_wo_entrp">   -332.87263128 </i>
    <i name="e_0_energy">   -332.88186513 </i>
   </energy>
  </scstep>
  <scstep>
   <time name="dav">   25.69   25.74</time>
   <time name="total">   26.32   26.37</time>
   <energy>
    <i name="e_fr_energy">   -332.88461632 </i>
    <i name="e_wo_entrp">   -332.87004213 </i>
    <i name="e_0_energy">   -332.87975826 </i>
   </energy>
  </scstep>
  <scstep>
   <time name="dav">   25.65   25.69</time>
   <time name="total">   26.27   26.31</time>
   <energy>
    <i name="e_fr_energy">   -332.88316897 </i>
    <i name="e_wo_entrp">   -332.86904228 </i>
    <i name="e_0_energy">   -332.87846007 </i>
   </energy>
  </scstep>
  <scstep>
   <time name="dav">   25.54   25.59</time>
   <time name="total">   26.16   26.21</time>
   <energy>
    <i name="e_fr_energy">   -332.88292475 </i>
    <i name="e_wo_entrp">   -332.86881393 </i>
    <i name="e_0_energy">   -332.87822114 </i>
   </energy>
  </scstep>
  <scstep>
   <time name="dav">   26.27   26.32</time>
   <time name="total">   26.90   26.97</time>
   <energy>
    <i name="e_fr_energy">   -332.88253170 </i>
    <i name="e_wo_entrp">   -332.86815882 </i>
    <i name="e_0_energy">   -332.87774074 </i>
   </energy>
  </scstep>
  <scstep>
   <time name="dav">   23.34   23.43</time>
   <time name="total">   23.96   24.05</time>
   <energy>
    <i name="e_fr_energy">   -332.88244660 </i>
    <i name="e_wo_entrp">   -332.86831243 </i>
    <i name="e_0_energy">   -332.87773521 </i>
   </energy>
  </scstep>
  <scstep>
   <time name="dav">   20.22   20.25</time>
   <time name="total">   20.25   20.28</time>
   <energy>
    <i name="alphaZ">   1271.31753987 </i>
    <i name="ewald"> -10765.84663331 </i>
    <i name="hartreedc">  -2555.53084580 </i>
    <i name="XCdc">   -954.12809845 </i>
    <i name="pawpsdc">  20193.41920693 </i>
    <i name="pawaedc"> -18655.31545739 </i>
    <i name="eentropy">     -0.01426641 </i>
    <i name="bandstr">   -523.44379934 </i>
    <i name="atom">  11656.65998444 </i>
    <i name="e_fr_energy">   -332.88236947 </i>
    <i name="e_wo_entrp">   -332.86810306 </i>
    <i name="e_0_energy">   -332.87761400 </i>
   </energy>
  </scstep>
  <structure>
   <crystal>
    <varray name="basis" >
     <v>      -3.18560240      -3.15140033      -3.18557646 </v>
     <v>       1.53308054       1.60951979      -7.93805467 </v>
     <v>       7.92190596      -7.91865240      -1.51053365 </v>
    </varray>
    <i name="volume">    478.15440513 </i>
    <varray name="rec_basis" >
     <v>      -0.13654570      -0.12667195      -0.05205514 </v>
     <v>       0.04280035       0.06284120      -0.10496771 </v>
     <v>       0.06304080      -0.06309935      -0.00061892 </v>
    </varray>
   </crystal>
   <varray name="positions" >
    <v>       0.96135187       0.93368949       0.39487820 </v>
    <v>       0.63220705       0.26514009       0.40191552 </v>
    <v>      -0.00166345      -0.00095742       0.00256018 </v>
    <v>       0.09505043       0.20766439       0.79897926 </v>
    <v>       0.03958074       0.06654749       0.59822160 </v>
    <v>       0.90439721       0.79749174       0.20346201 </v>
    <v>       0.80403502       0.59349213       0.39789809 </v>
    <v>       0.73333471       0.46678034       0.19819597 </v>
    <v>       0.66733286       0.34112555      -0.00211982 </v>
    <v>       0.37083413       0.72702864       0.59990097 </v>
    <v>       0.13432988       0.27210598       0.39854451 </v>
    <v>       0.82565100       0.67340443       0.00463455 </v>
    <v>       0.92948918       0.87199554       0.79935146 </v>
    <v>       0.56599377       0.12810361       0.18916539 </v>
    <v>       0.41030521       0.79905416       0.18994334 </v>
    <v>       0.43918613       0.86189997       0.80213694 </v>
    <v>       0.30013975       0.60247068       0.40530867 </v>
    <v>       0.85794416       0.73499142       0.59880558 </v>
    <v>       0.46602540       0.93102820       0.40437182 </v>
    <v>       0.17917962       0.32276489       0.00155522 </v>
    <v>       0.27015760       0.53492228       0.80046450 </v>
    <v>       0.20126397       0.39294660       0.59841235 </v>
    <v>       0.05719129       0.14391557       0.20658408 </v>
    <v>       0.76869701       0.52638779       0.80132903 </v>
    <v>       0.69210916       0.41127540       0.60344586 </v>
    <v>       0.59738427       0.20080088       0.79903319 </v>
    <v>       0.53768023       0.06901920       0.60343067 </v>
    <v>       0.33161794       0.65612787       0.00159260 </v>
    <v>       0.22919386       0.46878309       0.19799827 </v>
   </varray>
  </structure>
  <varray name="forces" >
   <v>       0.13117419       0.04176239      -0.02804990 </v>
   <v>      -0.20811470       0.20060692       0.00720422 </v>
   <v>      -0.02120518      -0.05649840      -0.10107333 </v>
   <v>      -0.17586388      -0.12988734       0.24584374 </v>
   <v>       0.00163228       0.00939958      -0.06928455 </v>
   <v>      -0.24927869      -0.03134153      -0.01101638 </v>
   <v>       0.07045236       0.03996613      -0.06238017 </v>
   <v>       0.17198584      -0.05622338       0.09310321 </v>
   <v>      -0.11830931      -0.13186041       0.12447860 </v>
   <v>       0.22852632      -0.04095951      -0.10754381 </v>
   <v>       0.11330800      -0.08232492       0.02023526 </v>
   <v>      -0.08094395       0.15534809      -0.04183451 </v>
   <v>      -0.00343345      -0.22671766      -0.08754668 </v>
   <v>      -0.12527001       0.40070006       0.28276444 </v>
   <v>       0.20499708      -0.00371391      -0.07160719 </v>
   <v>       0.31841235      -0.06042580       0.00025497 </v>
   <v>      -0.29518995       0.19032171      -0.09773263 </v>
   <v>      -0.02572558       0.04089179      -0.02847083 </v>
   <v>      -0.11505053       0.05538003       0.05943160 </v>
   <v>      -0.25086181      -0.34269701       0.11519150 </v>
   <v>       0.05728813       0.01085228       0.14481708 </v>
   <v>       0.04698967       0.01981710       0.01212963 </v>
   <v>       0.22690947       0.05696638      -0.13623789 </v>
   <v>       0.18773557      -0.05665679      -0.45417137 </v>
   <v>      -0.07173155      -0.03859475       0.26920126 </v>
   <v>       0.11263629      -0.01916128      -0.06367097 </v>
   <v>       0.02165735      -0.02596654       0.02447415 </v>
   <v>      -0.06267500       0.27412779      -0.09329663 </v>
   <v>      -0.09005133      -0.19311102       0.05478717 </v>
  </varray>
  <varray name="stress" >
   <v>       7.17112158      -0.08764256       2.14857441 </v>
   <v>      -0.08764251       5.53850406       0.72542018 </v>
   <v>       2.14857431       0.72542024       3.14588023 </v>
  </varray>
  <energy>
   <i name="e_fr_energy">   -332.88236947 </i>
   <i name="e_wo_entrp">   -332.87761400 </i>
   <i name="e_0_energy">     -0.01426641 </i>
  </energy>
  <time name="totalsc">  214.67  215.49</time>
 </calculation>
 <calculation>
  <scstep>
   <time name="dav">   18.49   18.52</time>
   <time name="total">   19.12   19.15</time>
   <energy>
    <i name="alphaZ">   1262.04411345 </i>
    <i name="ewald"> -10740.74692474 </i>
    <i name="hartreedc">  -2548.32338645 </i>
    <i name="XCdc">   -954.94283521 </i>
    <i name="pawpsdc">  20193.02065994 </i>
    <i name="pawaedc"> -18654.96642228 </i>
    <i name="eentropy">     -0.01220289 </i>
    <i name="bandstr">   -545.67311731 </i>
    <i name="atom">  11656.65998444 </i>
    <i name="e_fr_energy">   -332.94013104 </i>
    <i name="e_wo_entrp">   -332.92792815 </i>
    <i name="e_0_energy">   -332.93606341 </i>
   </energy>
  </scstep>
  <scstep>
   <time name="dav">   25.24   25.28</time>
   <time name="total">   25.87   25.91</time>
   <energy>
    <i name="e_fr_energy">   -332.96399640 </i>
    <i name="e_wo_entrp">   -332.94979184 </i>
    <i name="e_0_energy">   -332.95926154 </i>
   </energy>
  </scstep>
  <scstep>
   <time name="dav">   25.21   25.24</time>
   <time name="total">   25.84   25.89</time>
   <energy>
    <i name="e_fr_energy">   -332.96371438 </i>
    <i name="e_wo_entrp">   -332.95137508 </i>
    <i name="e_0_energy">   -332.95960128 </i>
   </energy>
  </scstep>
  <scstep>
   <time name="dav">   25.10   25.13</time>
   <time name="total">   25.73   25.77</time>
   <energy>
    <i name="e_fr_energy">   -332.94089408 </i>
    <i name="e_wo_entrp">   -332.92709671 </i>
    <i name="e_0_energy">   -332.93629496 </i>
   </energy>
  </scstep>
  <scstep>
   <time name="dav">   25.59   25.63</time>
   <time name="total">   26.23   26.26</time>
   <energy>
    <i name="e_fr_energy">   -332.93830461 </i>
    <i name="e_wo_entrp">   -332.92614700 </i>
    <i name="e_0_energy">   -332.93425208 </i>
   </energy>
  </scstep>
  <scstep>
   <time name="dav">   26.23   26.27</time>
   <time name="total">   26.87   26.91</time>
   <energy>
    <i name="e_fr_energy">   -332.93444383 </i>
    <i name="e_wo_entrp">   -332.92084629 </i>
    <i name="e_0_energy">   -332.92991132 </i>
   </energy>
  </scstep>
  <scstep>
   <time name="dav">   26.88   26.92</time>
   <time name="total">   27.51   27.55</time>
   <energy>
    <i name="e_fr_energy">   -332.93451103 </i>
    <i name="e_wo_entrp">   -332.92113996 </i>
    <i name="e_0_energy">   -332.93005400 </i>
   </energy>
  </scstep>
  <scstep>
   <time name="dav">   23.70   23.73</time>
   <time name="total">   24.33   24.36</time>
   <energy>
    <i name="e_fr_energy">   -332.93447645 </i>
    <i name="e_wo_entrp">   -332.92111223 </i>
    <i name="e_0_energy">   -332.93002171 </i>
   </energy>
  </scstep>
  <scstep>
   <time name="dav">   21.79   21.82</time>
   <time name="total">   22.42   22.46</time>
   <energy>
    <i name="e_fr_energy">   -332.93451558 </i>
    <i name="e_wo_entrp">   -332.92125286 </i>
    <i name="e_0_energy">   -332.93009468 </i>
   </energy>
  </scstep>
  <scstep>
   <time name="dav">   20.49   20.52</time>
   <time name="total">   20.52   20.55</time>
   <energy>
    <i name="alphaZ">   1262.04411345 </i>
    <i name="ewald"> -10740.74692474 </i>
    <i name="hartreedc">  -2559.72598756 </i>
    <i name="XCdc">   -954.64074984 </i>
    <i name="pawpsdc">  19937.82695606 </i>
    <i name="pawaedc"> -18399.38637659 </i>
[...]
       <r>    4.6215    1.0000 </r>
       <r>    4.6557    1.0000 </r>
       <r>    4.7260    1.0000 </r>
       <r>    4.7607    1.0000 </r>
       <r>    4.8001    1.0000 </r>
       <r>    4.8887    1.0000 </r>
       <r>    4.9228    1.0000 </r>
       <r>    4.9711    1.0000 </r>
       <r>    5.0291    1.0000 </r>
       <r>    5.1134    1.0000 </r>
       <r>    5.1489    1.0000 </r>
       <r>    5.2026    1.0000 </r>
       <r>    5.2537    1.0000 </r>
       <r>    5.3193    1.0000 </r>
       <r>    5.4188    1.0000 </r>
       <r>    5.4870    1.0000 </r>
       <r>    5.5208    1.0000 </r>
       <r>    5.5764    1.0000 </r>
       <r>    5.6720    1.0000 </r>
       <r>    5.7310    1.0000 </r>
       <r>    5.7913    1.0000 </r>
       <r>    5.8204    1.0000 </r>
       <r>    5.8593    1.0000 </r>
       <r>    5.9250    1.0000 </r>
       <r>    5.9419    1.0000 </r>
       <r>    5.9672    1.0001 </r>
       <r>    6.0625    1.0007 </r>
       <r>    6.0940    1.0014 </r>
       <r>    6.1543    1.0046 </r>
       <r>    6.2018    1.0102 </r>
       <r>    6.2572    1.0210 </r>
       <r>    6.2854    1.0275 </r>
       <r>    6.3537    1.0348 </r>
       <r>    6.4172    1.0005 </r>
       <r>    6.4538    0.9456 </r>
       <r>    6.5815    0.5188 </r>
       <r>    6.6595    0.2112 </r>
       <r>    6.8049   -0.0324 </r>
       <r>    6.8478   -0.0345 </r>
       <r>    6.9243   -0.0189 </r>
       <r>    6.9825   -0.0085 </r>
       <r>    7.1105   -0.0007 </r>
       <r>    7.1971   -0.0001 </r>
       <r>    7.4156   -0.0000 </r>
       <r>    7.5808   -0.0000 </r>
       <r>    7.7103   -0.0000 </r>
       <r>    7.7644   -0.0000 </r>
       <r>    7.9081   -0.0000 </r>
       <r>    7.9976   -0.0000 </r>
       <r>    8.1682   -0.0000 </r>
       <r>    8.3784   -0.0000 </r>
       <r>    8.5023   -0.0000 </r>
       <r>    8.6098   -0.0000 </r>
       <r>    8.6293   -0.0000 </r>
       <r>    8.7052   -0.0000 </r>
       <r>    8.7564   -0.0000 </r>
       <r>    8.8783   -0.0000 </r>
       <r>    8.9027   -0.0000 </r>
       <r>    8.9688   -0.0000 </r>
       <r>    9.0136   -0.0000 </r>
       <r>    9.0397   -0.0000 </r>
      </set>
     </set>
    </set>
   </array>
  </eigenvalues>
  <separator name="orbital magnetization" >
   <v name="MAGDIPOLOUT">      0.00000000      0.00000000      0.00000000</v>
  </separator>
  <dos>
   <i name="efermi">      6.58600296 </i>
   <total>
    <array>
     <dimension dim="1">gridpoints</dimension>
     <dimension dim="2">spin</dimension>
     <field>energy</field>
     <field>total</field>
     <field>integrated</field>
     <set>
      <set comment="spin 1">
       <r>   -50.5008     0.0000     0.0000 </r>
       <r>   -50.2923     0.0000     0.0000 </r>
       <r>   -50.0838     0.0000     0.0000 </r>
       <r>   -49.8753     0.0000     0.0000 </r>
       <r>   -49.6668     0.0000     0.0000 </r>
       <r>   -49.4583    -0.0000    -0.0000 </r>
       <r>   -49.2498    -0.0000    -0.0000 </r>
       <r>   -49.0413    -0.0000    -0.0000 </r>
       <r>   -48.8328    -0.0000    -0.0000 </r>
       <r>   -48.6243    -0.0000    -0.0000 </r>
       <r>   -48.4158    -0.0000    -0.0000 </r>
       <r>   -48.2073    -0.0034    -0.0007 </r>
       <r>   -47.9988    -0.1795    -0.0381 </r>
       <r>   -47.7903     0.3349     0.0317 </r>
       <r>   -47.5818     8.2451     1.7508 </r>
       <r>   -47.3733    17.7748     5.4569 </r>
       <r>   -47.1648    18.4983     9.3138 </r>
       <r>   -46.9563     3.9076    10.1285 </r>
       <r>   -46.7478    -0.5900    10.0055 </r>
       <r>   -46.5393    -0.0264    10.0000 </r>
       <r>   -46.3308    -0.0001    10.0000 </r>
       <r>   -46.1223    -0.0000    10.0000 </r>
       <r>   -45.9138    -0.0000    10.0000 </r>
       <r>   -45.7053     0.0000    10.0000 </r>
       <r>   -45.4968     0.0000    10.0000 </r>
       <r>   -45.2883     0.0000    10.0000 </r>
       <r>   -45.0798     0.0000    10.0000 </r>
       <r>   -44.8713     0.0000    10.0000 </r>
       <r>   -44.6628     0.0000    10.0000 </r>
       <r>   -44.4543     0.0000    10.0000 </r>
       <r>   -44.2458     0.0000    10.0000 </r>
       <r>   -44.0373     0.0000    10.0000 </r>
       <r>   -43.8288     0.0000    10.0000 </r>
       <r>   -43.6203     0.0000    10.0000 </r>
       <r>   -43.4118     0.0000    10.0000 </r>
       <r>   -43.2033     0.0000    10.0000 </r>
       <r>   -42.9948     0.0000    10.0000 </r>
       <r>   -42.7863     0.0000    10.0000 </r>
       <r>   -42.5778     0.0000    10.0000 </r>
       <r>   -42.3693     0.0000    10.0000 </r>
       <r>   -42.1608     0.0000    10.0000 </r>
       <r>   -41.9523     0.0000    10.0000 </r>
       <r>   -41.7438     0.0000    10.0000 </r>
       <r>   -41.5353     0.0000    10.0000 </r>
       <r>   -41.3268     0.0000    10.0000 </r>
       <r>   -41.1183     0.0000    10.0000 </r>
       <r>   -40.9098     0.0000    10.0000 </r>
       <r>   -40.7013     0.0000    10.0000 </r>
       <r>   -40.4928     0.0000    10.0000 </r>
       <r>   -40.2842     0.0000    10.0000 </r>
       <r>   -40.0757     0.0000    10.0000 </r>
       <r>   -39.8672     0.0000    10.0000 </r>
       <r>   -39.6587     0.0000    10.0000 </r>
       <r>   -39.4502     0.0000    10.0000 </r>
       <r>   -39.2417     0.0000    10.0000 </r>
       <r>   -39.0332     0.0000    10.0000 </r>
       <r>   -38.8247     0.0000    10.0000 </r>
       <r>   -38.6162     0.0000    10.0000 </r>
       <r>   -38.4077     0.0000    10.0000 </r>
       <r>   -38.1992     0.0000    10.0000 </r>
       <r>   -37.9907     0.0000    10.0000 </r>
       <r>   -37.7822     0.0000    10.0000 </r>
       <r>   -37.5737     0.0000    10.0000 </r>
       <r>   -37.3652     0.0000    10.0000 </r>
       <r>   -37.1567     0.0000    10.0000 </r>
       <r>   -36.9482     0.0000    10.0000 </r>
       <r>   -36.7397     0.0000    10.0000 </r>
       <r>   -36.5312     0.0000    10.0000 </r>
       <r>   -36.3227     0.0000    10.0000 </r>
       <r>   -36.1142     0.0000    10.0000 </r>
       <r>   -35.9057     0.0000    10.0000 </r>
       <r>   -35.6972     0.0000    10.0000 </r>
       <r>   -35.4887     0.0000    10.0000 </r>
       <r>   -35.2802     0.0000    10.0000 </r>
       <r>   -35.0717     0.0000    10.0000 </r>
       <r>   -34.8632     0.0000    10.0000 </r>
       <r>   -34.6547     0.0000    10.0000 </r>
       <r>   -34.4462     0.0000    10.0000 </r>
       <r>   -34.2377     0.0000    10.0000 </r>
       <r>   -34.0292     0.0000    10.0000 </r>
       <r>   -33.8207     0.0000    10.0000 </r>
       <r>   -33.6122     0.0000    10.0000 </r>
       <r>   -33.4037     0.0000    10.0000 </r>
       <r>   -33.1952     0.0000    10.0000 </r>
       <r>   -32.9867     0.0000    10.0000 </r>
       <r>   -32.7782     0.0000    10.0000 </r>
       <r>   -32.5697     0.0000    10.0000 </r>
       <r>   -32.3612     0.0000    10.0000 </r>
       <r>   -32.1527     0.0000    10.0000 </r>
       <r>   -31.9442     0.0000    10.0000 </r>
       <r>   -31.7357     0.0000    10.0000 </r>
       <r>   -31.5272     0.0000    10.0000 </r>
       <r>   -31.3187     0.0000    10.0000 </r>
       <r>   -31.1102     0.0000    10.0000 </r>
       <r>   -30.9017     0.0000    10.0000 </r>
       <r>   -30.6932     0.0000    10.0000 </r>
       <r>   -30.4847     0.0000    10.0000 </r>
       <r>   -30.2762     0.0000    10.0000 </r>
       <r>   -30.0677     0.0000    10.0000 </r>
       <r>   -29.8592     0.0000    10.0000 </r>
       <r>   -29.6507     0.0000    10.0000 </r>
       <r>   -29.4422     0.0000    10.0000 </r>
       <r>   -29.2336     0.0000    10.0000 </r>
       <r>   -29.0251     0.0000    10.0000 </r>
       <r>   -28.8166     0.0000    10.0000 </r>
       <r>   -28.6081     0.0000    10.0000 </r>
       <r>   -28.3996     0.0000    10.0000 </r>
       <r>   -28.1911     0.0000    10.0000 </r>
       <r>   -27.9826     0.0000    10.0000 </r>
       <r>   -27.7741     0.0000    10.0000 </r>
       <r>   -27.5656     0.0000    10.0000 </r>
       <r>   -27.3571     0.0000    10.0000 </r>
       <r>   -27.1486     0.0000    10.0000 </r>
       <r>   -26.9401     0.0000    10.0000 </r>
       <r>   -26.7316     0.0000    10.0000 </r>
       <r>   -26.5231     0.0000    10.0000 </r>
       <r>   -26.3146     0.0000    10.0000 </r>
       <r>   -26.1061     0.0000    10.0000 </r>
       <r>   -25.8976     0.0000    10.0000 </r>
       <r>   -25.6891    -0.0000    10.0000 </r>
       <r>   -25.4806    -0.0000    10.0000 </r>
       <r>   -25.2721    -0.0000    10.0000 </r>
       <r>   -25.0636    -0.0000    10.0000 </r>
       <r>   -24.8551    -0.0000    10.0000 </r>
       <r>   -24.6466    -0.0007     9.9999 </r>
       <r>   -24.4381    -0.0821     9.9827 </r>
       <r>   -24.2296    -0.6225     9.8529 </r>
       <r>   -24.0211     6.6213    11.2335 </r>
       <r>   -23.8126    27.5015    16.9676 </r>
       <r>   -23.6041    35.5063    24.3707 </r>
       <r>   -23.3956    38.5054    32.3992 </r>
       <r>   -23.1871    23.1329    37.2225 </r>
       <r>   -22.9786    12.2814    39.7831 </r>
       <r>   -22.7701     1.3837    40.0717 </r>
       <r>   -22.5616    -0.3335    40.0021 </r>
       <r>   -22.3531    -0.0101    40.0000 </r>
       <r>   -22.1446    -0.0000    40.0000 </r>
       <r>   -21.9361    -0.0000    40.0000 </r>
       <r>   -21.7276    -0.0000    40.0000 </r>
       <r>   -21.5191     0.0000    40.0000 </r>
       <r>   -21.3106     0.0000    40.0000 </r>
       <r>   -21.1021     0.0000    40.0000 </r>
       <r>   -20.8936     0.0000    40.0000 </r>
       <r>   -20.6851     0.0000    40.0000 </r>
       <r>   -20.4766     0.0000    40.0000 </r>
       <r>   -20.2681     0.0000    40.0000 </r>
       <r>   -20.0596     0.0000    40.0000 </r>
       <r>   -19.8511     0.0000    40.0000 </r>
       <r>   -19.6426     0.0000    40.0000 </r>
       <r>   -19.4341     0.0000    40.0000 </r>
       <r>   -19.2256     0.0000    40.0000 </r>
       <r>   -19.0171     0.0000    40.0000 </r>
       <r>   -18.8086     0.0000    40.0000 </r>
       <r>   -18.6001     0.0000    40.0000 </r>
       <r>   -18.3916     0.0000    40.0000 </r>
       <r>   -18.1830     0.0000    40.0000 </r>
       <r>   -17.9745     0.0000    40.0000 </r>
       <r>   -17.7660     0.0000    40.0000 </r>
       <r>   -17.5575     0.0000    40.0000 </r>
       <r>   -17.3490     0.0000    40.0000 </r>
       <r>   -17.1405     0.0000    40.0000 </r>
       <r>   -16.9320     0.0000    40.0000 </r>
       <r>   -16.7235     0.0000    40.0000 </r>
       <r>   -16.5150     0.0000    40.0000 </r>
       <r>   -16.3065     0.0000    40.0000 </r>
       <r>   -16.0980     0.0000    40.0000 </r>
       <r>   -15.8895     0.0000    40.0000 </r>
       <r>   -15.6810     0.0000    40.0000 </r>
       <r>   -15.4725     0.0000    40.0000 </r>
       <r>   -15.2640     0.0000    40.0000 </r>
       <r>   -15.0555     0.0000    40.0000 </r>
       <r>   -14.8470     0.0000    40.0000 </r>
       <r>   -14.6385     0.0000    40.0000 </r>
       <r>   -14.4300     0.0000    40.0000 </r>
       <r>   -14.2215     0.0000    40.0000 </r>
       <r>   -14.0130     0.0000    40.0000 </r>
       <r>   -13.8045     0.0000    40.0000 </r>
       <r>   -13.5960     0.0000    40.0000 </r>
       <r>   -13.3875     0.0000    40.0000 </r>
       <r>   -13.1790     0.0000    40.0000 </r>
       <r>   -12.9705     0.0000    40.0000 </r>
       <r>   -12.7620     0.0000    40.0000 </r>
       <r>   -12.5535     0.0000    40.0000 </r>
       <r>   -12.3450     0.0000    40.0000 </r>
       <r>   -12.1365     0.0000    40.0000 </r>
       <r>   -11.9280     0.0000    40.0000 </r>
       <r>   -11.7195     0.0000    40.0000 </r>
       <r>   -11.5110     0.0000    40.0000 </r>
       <r>   -11.3025     0.0000    40.0000 </r>
       <r>   -11.0940     0.0000    40.0000 </r>
       <r>   -10.8855     0.0000    40.0000 </r>
       <r>   -10.6770     0.0000    40.0000 </r>
       <r>   -10.4685     0.0000    40.0000 </r>
       <r>   -10.2600     0.0000    40.0000 </r>
       <r>   -10.0515     0.0000    40.0000 </r>
       <r>    -9.8430     0.0000    40.0000 </r>
       <r>    -9.6345     0.0000    40.0000 </r>
       <r>    -9.4260     0.0000    40.0000 </r>
       <r>    -9.2175     0.0000    40.0000 </r>
       <r>    -9.0090     0.0000    40.0000 </r>
       <r>    -8.8005     0.0000    40.0000 </r>
       <r>    -8.5920     0.0000    40.0000 </r>
       <r>    -8.3835     0.0000    40.0000 </r>
       <r>    -8.1750     0.0000    40.0000 </r>
       <r>    -7.9665     0.0000    40.0000 </r>
       <r>    -7.7580     0.0000    40.0000 </r>
       <r>    -7.5495     0.0000    40.0000 </r>
       <r>    -7.3410     0.0000    40.0000 </r>
       <r>    -7.1324     0.0000    40.0000 </r>
       <r>    -6.9239     0.0000    40.0000 </r>
       <r>    -6.7154     0.0000    40.0000 </r>
       <r>    -6.5069     0.0000    40.0000 </r>
       <r>    -6.2984     0.0000    40.0000 </r>
       <r>    -6.0899     0.0000    40.0000 </r>
       <r>    -5.8814     0.0000    40.0000 </r>
       <r>    -5.6729     0.0000    40.0000 </r>
       <r>    -5.4644     0.0000    40.0000 </r>
       <r>    -5.2559     0.0000    40.0000 </r>
       <r>    -5.0474     0.0000    40.0000 </r>
       <r>    -4.8389     0.0000    40.0000 </r>
       <r>    -4.6304     0.0000    40.0000 </r>
       <r>    -4.4219     0.0000    40.0000 </r>
       <r>    -4.2134     0.0000    40.0000 </r>
       <r>    -4.0049     0.0000    40.0000 </r>
       <r>    -3.7964     0.0000    40.0000 </r>
       <r>    -3.5879     0.0000    40.0000 </r>
       <r>    -3.3794     0.0000    40.0000 </r>
       <r>    -3.1709     0.0000    40.0000 </r>
       <r>    -2.9624     0.0000    40.0000 </r>
       <r>    -2.7539     0.0000    40.0000 </r>
       <r>    -2.5454    -0.0000    40.0000 </r>
       <r>    -2.3369    -0.0000    40.0000 </r>
       <r>    -2.1284    -0.0000    40.0000 </r>
       <r>    -1.9199    -0.0000    40.0000 </r>
       <r>    -1.7114    -0.0000    40.0000 </r>
       <r>    -1.5029    -0.0000    40.0000 </r>
       <r>    -1.2944    -0.0002    40.0000 </r>
       <r>    -1.0859    -0.0064    39.9986 </r>
       <r>    -0.8774     0.0044    39.9995 </r>
       <r>    -0.6689     0.3158    40.0654 </r>
       <r>    -0.4604     0.9676    40.2671 </r>
       <r>    -0.2519     1.6420    40.6095 </r>
       <r>    -0.0434     1.8629    40.9979 </r>
       <r>     0.1651     1.4805    41.3066 </r>
       <r>     0.3736     2.4476    41.8169 </r>
       <r>     0.5821     3.2990    42.5048 </r>
       <r>     0.7906     3.1068    43.1526 </r>
       <r>     0.9991     2.6909    43.7136 </r>
       <r>     1.2076     4.2337    44.5963 </r>
       <r>     1.4161     4.0797    45.4470 </r>
       <r>     1.6246     4.3769    46.3596 </r>
       <r>     1.8331     6.8333    47.7843 </r>
       <r>     2.0416     9.5335    49.7721 </r>
       <r>     2.2501    14.0410    52.6996 </r>
       <r>     2.4586    18.5690    56.5713 </r>
       <r>     2.6671    21.0007    60.9500 </r>
       <r>     2.8756    25.4144    66.2490 </r>
       <r>     3.0841    28.5622    72.2042 </r>
       <r>     3.2926    29.1879    78.2900 </r>
       <r>     3.5011    29.0674    84.3506 </r>
       <r>     3.7096    29.4830    90.4978 </r>
       <r>     3.9182    29.6383    96.6775 </r>
       <r>     4.1267    25.7908   102.0549 </r>
       <r>     4.3352    24.6257   107.1894 </r>
       <r>     4.5437    33.9461   114.2672 </r>
       <r>     4.7522    38.4299   122.2799 </r>
       <r>     4.9607    39.9203   130.6034 </r>
       <r>     5.1692    38.4448   138.6192 </r>
       <r>     5.3777    36.2295   146.1731 </r>
       <r>     5.5862    36.1293   153.7061 </r>
       <r>     5.7947    38.3575   161.7037 </r>
       <r>     6.0032    38.9016   169.8148 </r>
       <r>     6.2117    39.5686   178.0649 </r>
       <r>     6.4202    36.4597   185.6668 </r>
       <r>     6.6287    31.8013   192.2975 </r>
       <r>     6.8372    26.5485   197.8329 </r>
       <r>     7.0457    20.0389   202.0110 </r>
       <r>     7.2542    15.9671   205.3402 </r>
       <r>     7.4627    15.9574   208.6673 </r>
       <r>     7.6712    16.5278   212.1134 </r>
       <r>     7.8797    18.5663   215.9845 </r>
       <r>     8.0882    20.7229   220.3053 </r>
       <r>     8.2967    23.5210   225.2094 </r>
       <r>     8.5052    25.8061   230.5900 </r>
       <r>     8.7137    22.2843   235.2364 </r>
       <r>     8.9222    15.3069   238.4279 </r>
       <r>     9.1307     6.9977   239.8869 </r>
       <r>     9.3392     0.6929   240.0314 </r>
       <r>     9.5477    -0.1401   240.0022 </r>
       <r>     9.7562    -0.0104   240.0000 </r>
       <r>     9.9647    -0.0001   240.0000 </r>
       <r>    10.1732    -0.0000   240.0000 </r>
       <r>    10.3817    -0.0000   240.0000 </r>
       <r>    10.5902    -0.0000   240.0000 </r>
       <r>    10.7987     0.0000   240.0000 </r>
       <r>    11.0072     0.0000   240.0000 </r>
       <r>    11.2157     0.0000   240.0000 </r>
       <r>    11.4242     0.0000   240.0000 </r>
       <r>    11.6327     0.0000   240.0000 </r>
       <r>    11.8412     0.0000   240.0000 </r>
       <r>    12.0497     0.0000   240.0000 </r>
      </set>
     </set>
    </array>
   </total>
  </dos>
 </calculation>
 <structure name="finalpos" >
  <crystal>
   <varray name="basis" >
    <v>      -3.20669289      -3.15675546      -3.19726739 </v>
    <v>       1.50000272       1.60807244      -7.91974359 </v>
    <v>       7.92786738      -7.92584383      -1.47569172 </v>
   </varray>
   <i name="volume">    478.88258662 </i>
   <varray name="rec_basis" >
    <v>      -0.13603266      -0.12648849      -0.05144763 </v>
    <v>       0.04318938       0.06281206      -0.10533289 </v>
    <v>       0.06294263      -0.06304697      -0.00088008 </v>
   </varray>
  </crystal>
  <varray name="positions" >
   <v>       0.95647507       0.93468862       0.39500313 </v>
   <v>       0.62955523       0.26562873       0.39928246 </v>
   <v>       0.00580979      -0.00046755       0.00287336 </v>
   <v>       0.09736984       0.20684200       0.79790548 </v>
   <v>       0.03808053       0.06726273       0.59841382 </v>
   <v>       0.90664090       0.79591629       0.20202865 </v>
   <v>       0.80245816       0.59435115       0.39794562 </v>
   <v>       0.73194685       0.46651746       0.19863760 </v>
   <v>       0.67401261       0.33829095      -0.00184961 </v>
   <v>       0.36871361       0.72868280       0.60169414 </v>
   <v>       0.13105414       0.27337952       0.39965953 </v>
   <v>       0.82738126       0.67311070       0.00397778 </v>
   <v>       0.93271102       0.87216892       0.80092114 </v>
   <v>       0.55904837       0.12459646       0.18361959 </v>
   <v>       0.40755855       0.79939305       0.19051680 </v>
   <v>       0.43730956       0.86469729       0.80610121 </v>
   <v>       0.30063435       0.60374712       0.40329291 </v>
   <v>       0.85541593       0.73690199       0.59893852 </v>
   <v>       0.46343995       0.93125567       0.40291358 </v>
   <v>       0.19443594       0.31265345       0.00131612 </v>
   <v>       0.27172129       0.53332331       0.80171964 </v>
   <v>       0.20078841       0.39389387       0.59771500 </v>
   <v>       0.04921792       0.14819752       0.20841127 </v>
   <v>       0.76966886       0.53025222       0.80276387 </v>
   <v>       0.69037355       0.41059801       0.60405379 </v>
   <v>       0.59813212       0.20143243       0.79996773 </v>
   <v>       0.53619013       0.06956686       0.60376987 </v>
   <v>       0.33264951       0.65630602       0.00092923 </v>
   <v>       0.23120655       0.46681241       0.19747776 </v>
  </varray>
 </structure>
</modeling>
