SQS with 1 vacancy for VFE and VRV      
           1
    -3.190000   -3.190000   -3.190000
     1.595000    1.595000   -7.975000
     7.975000   -7.975000   -1.595000
   Nb   Mo   Ta   Ti   W 
   5   6   6   6   6
Direct configuration=     1
   0.96666667  0.93333333  0.40000000
   0.63333333  0.26666667  0.40000000
   0.00000000  0.00000000  0.00000000
   0.10000000  0.20000000  0.80000000
   0.03333333  0.06666667  0.60000000
   0.90000000  0.80000000  0.20000000
   0.80000000  0.60000000  0.40000000
   0.73333333  0.46666667  0.20000000
   0.66666667  0.33333333  0.00000000
   0.36666667  0.73333333  0.60000000
   0.13333333  0.26666667  0.40000000
   0.83333333  0.66666667  0.00000000
   0.93333333  0.86666667  0.80000000
   0.56666667  0.13333333  0.20000000
   0.40000000  0.80000000  0.20000000
   0.43333333  0.86666667  0.80000000
   0.30000000  0.60000000  0.40000000
   0.86666667  0.73333333  0.60000000
   0.46666667  0.93333333  0.40000000
   0.16666667  0.33333333  0.00000000
   0.26666667  0.53333333  0.80000000
   0.20000000  0.40000000  0.60000000
   0.06666667  0.13333333  0.20000000
   0.76666667  0.53333333  0.80000000
   0.70000000  0.40000000  0.60000000
   0.60000000  0.20000000  0.80000000
   0.53333333  0.06666667  0.60000000
   0.33333333  0.66666667  0.00000000
   0.23333333  0.46666667  0.20000000
SQS with 1 vacancy for VFE and VRV      
           1
    -3.138644   -3.121307   -3.139262
     1.539821    1.579663   -7.837663
     7.826785   -7.825617   -1.527457
   Nb   Mo   Ta   Ti   W 
   5   6   6   6   6
Direct configuration=     2
   0.96414785  0.93334559  0.39732241
   0.63265854  0.26591881  0.40125663
  -0.00100237 -0.00079789  0.00122408
   0.09686419  0.20438187  0.79938090
   0.03644152  0.06655737  0.59910870
   0.90223061  0.79863968  0.20193370
   0.80224976  0.59635361  0.39883511
   0.73331291  0.46705237  0.19892189
   0.66690829  0.33767351 -0.00113313
   0.36890966  0.73001442  0.59985719
   0.13382584  0.26963224  0.39908096
   0.82972739  0.66955588  0.00253976
   0.93109271  0.86960928  0.79950135
   0.56697754  0.13103060  0.19492804
   0.40543336  0.79878569  0.19483251
   0.43680730  0.86384098  0.80068672
   0.29999096  0.60132097  0.40280741
   0.86212616  0.73417631  0.59944924
   0.46619104  0.93225823  0.40235269
   0.17217629  0.32870146  0.00077434
   0.26870842  0.53423136  0.80025100
   0.20085396  0.39621731  0.59911371
   0.06185234  0.13861502  0.20339185
   0.76746924  0.52940849  0.80063726
   0.69582417  0.40602546  0.60188944
   0.59914139  0.20044499  0.79911833
   0.53567985  0.06791749  0.60186910
   0.33248003  0.66107836  0.00113895
   0.23092106  0.46801053  0.19892986
SQS with 1 vacancy for VFE and VRV      
           1
    -3.160507   -3.150551   -3.160862
     1.563311    1.586192   -7.896129
     7.889881   -7.889211   -1.556211
   Nb   Mo   Ta   Ti   W 
   5   6   6   6   6
Direct configuration=     3
   0.96524258  0.93334359  0.39848517
   0.63294923  0.26624040  0.40071264
  -0.00056965 -0.00045473  0.00069442
   0.09822885  0.20248246  0.79964614
   0.03509447  0.06660784  0.59949398
   0.90126022  0.79922699  0.20109528
   0.80127170  0.59793691  0.39934339
   0.73332316  0.46688707  0.19938917
   0.66680886  0.33579475 -0.00064647
   0.36793390  0.73145405  0.59992172
   0.13361606  0.26834893  0.39947615
   0.83129148  0.66829766  0.00143653
   0.93206766  0.86833382  0.79971550
   0.56684521  0.13203735  0.19713069
   0.40308097  0.79932353  0.19707295
   0.43529748  0.86506608  0.80039027
   0.29999356  0.60074371  0.40158808
   0.86409637  0.73380965  0.59968941
   0.46639402  0.93271985  0.40133348
   0.16978190  0.33071015  0.00044089
   0.26782373  0.53384280  0.80014014
   0.20048076  0.39785850  0.59950195
   0.06394198  0.13631794  0.20191692
   0.76711675  0.53110863  0.80036475
   0.69763908  0.40340897  0.60106514
   0.59951497  0.20025323  0.79950073
   0.53466183  0.06737343  0.60105576
   0.33284345  0.66349767  0.00065143
   0.23196940  0.46742878  0.19939377
SQS with 1 vacancy for VFE and VRV      
           1
    -3.182155   -3.151284   -3.182181
     1.537234    1.606315   -7.932294
     7.917506   -7.914607   -1.516809
   Nb   Mo   Ta   Ti   W 
   5   6   6   6   6
Direct configuration=     4
   0.96188573  0.93364350  0.39537283
   0.63230790  0.26528998  0.40175123
  -0.00151446 -0.00088977  0.00230492
   0.09548753  0.20695476  0.79906934
   0.03896696  0.06655712  0.59839523
   0.90396643  0.79772852  0.20313789
   0.80365565  0.59410191  0.39809718
   0.73333346  0.46679560  0.19835946
   0.66726342  0.34039653 -0.00191989
   0.37043559  0.72763502  0.59990488
   0.13423374  0.27159217  0.39867074
   0.82642392  0.67270262  0.00419556
   0.92984354  0.87149398  0.79940048
   0.56611145  0.12864640  0.19025808
   0.40931835  0.79909598  0.19091903
   0.43865216  0.86233311  0.80189814
   0.30011918  0.60223224  0.40479835
   0.85878705  0.73482916  0.59892721
   0.46607434  0.93125812  0.40395622
   0.17789003  0.32385358  0.00140384
   0.26983837  0.53477466  0.80041933
   0.20115540  0.39361985  0.59856319
   0.05811660  0.14287175  0.20594313
   0.76847875  0.52703389  0.80119830
   0.69286815  0.41019620  0.60311786
   0.59767629  0.20072583  0.79909738
   0.53726685  0.06879303  0.60310429
   0.33178288  0.65713626  0.00146638
   0.22957472  0.46859800  0.19818941
SQS with 1 vacancy for VFE and VRV      
           1
    -3.185602   -3.151400   -3.185576
     1.533081    1.609520   -7.938055
     7.921906   -7.918652   -1.510534
   Nb   Mo   Ta   Ti   W 
   5   6   6   6   6
Direct configuration=     5
   0.96135187  0.93368949  0.39487820
   0.63220705  0.26514009  0.40191552
  -0.00166345 -0.00095742  0.00256018
   0.09505043  0.20766439  0.79897926
   0.03958074  0.06654749  0.59822160
   0.90439721  0.79749174  0.20346201
   0.80403502  0.59349213  0.39789809
   0.73333471  0.46678034  0.19819597
   0.66733286  0.34112555 -0.00211982
   0.37083413  0.72702864  0.59990097
   0.13432988  0.27210598  0.39854451
   0.82565100  0.67340443  0.00463455
   0.92948918  0.87199554  0.79935146
   0.56599377  0.12810361  0.18916539
   0.41030521  0.79905416  0.18994334
   0.43918613  0.86189997  0.80213694
   0.30013975  0.60247068  0.40530867
   0.85794416  0.73499142  0.59880558
   0.46602540  0.93102820  0.40437182
   0.17917962  0.32276489  0.00155522
   0.27015760  0.53492228  0.80046450
   0.20126397  0.39294660  0.59841235
   0.05719129  0.14391557  0.20658408
   0.76869701  0.52638779  0.80132903
   0.69210916  0.41127540  0.60344586
   0.59738427  0.20080088  0.79903319
   0.53768023  0.06901920  0.60343067
   0.33161794  0.65612787  0.00159260
   0.22919386  0.46878309  0.19799827
SQS with 1 vacancy for VFE and VRV      
           1
    -3.199216   -3.160032   -3.194647
     1.529598    1.611426   -7.948147
     7.946673   -7.939548   -1.506531
   Nb   Mo   Ta   Ti   W 
   5   6   6   6   6
Direct configuration=     6
   0.96032392  0.93417788  0.39503373
   0.63230230  0.26524008  0.40083710
  -0.00103195 -0.00070510  0.00270356
   0.09616173  0.20600724  0.79883273
   0.03978312  0.06688649  0.59817179
   0.90613029  0.79695684  0.20292942
   0.80361077  0.59390322  0.39794705
   0.73242400  0.46652229  0.19878272
   0.66847799  0.34011944 -0.00212129
   0.37002748  0.72771614  0.60063288
   0.13408491  0.27209139  0.39905168
   0.82523778  0.67398733  0.00407290
   0.93087604  0.87186042  0.79995032
   0.56389539  0.12758420  0.18754003
   0.40945714  0.79973629  0.19033839
   0.43774108  0.86224472  0.80320493
   0.30105765  0.60292445  0.40408618
   0.85778761  0.73521147  0.59860440
   0.46625738  0.93065776  0.40398188
   0.18248524  0.32066749  0.00182833
   0.26949505  0.53443000  0.80059434
   0.20087263  0.39291308  0.59845891
   0.05569204  0.14528480  0.20716075
   0.76895821  0.52851371  0.80202598
   0.69200409  0.41001599  0.60340696
   0.59691881  0.20125652  0.79938047
   0.53771264  0.06891849  0.60361661
   0.33067368  0.65699543  0.00070460
   0.23058298  0.46788194  0.19824265
SQS with 1 vacancy for VFE and VRV      
           1
    -3.201101   -3.161227   -3.195902
     1.529116    1.611689   -7.949544
     7.950101   -7.942441   -1.505977
   Nb   Mo   Ta   Ti   W 
   5   6   6   6   6
Direct configuration=     7
   0.96018209  0.93424540  0.39505517
   0.63231529  0.26525381  0.40068827
  -0.00094485 -0.00067018  0.00272339
   0.09631518  0.20577812  0.79881248
   0.03981099  0.06693336  0.59816495
   0.90636934  0.79688288  0.20285597
   0.80355221  0.59396006  0.39795381
   0.73229848  0.46648664  0.19886365
   0.66863605  0.33998035 -0.00212149
   0.36991623  0.72781125  0.60073390
   0.13405119  0.27208942  0.39912166
   0.82518065  0.67406786  0.00399539
   0.93106744  0.87184182  0.80003303
   0.56360578  0.12751218  0.18731559
   0.40934014  0.79983062  0.19039291
   0.43754186  0.86229245  0.80335229
   0.30118405  0.60298710  0.40391752
   0.85776596  0.73524188  0.59857663
   0.46628937  0.93060650  0.40392805
   0.18294147  0.32037759  0.00186607
   0.26940373  0.53436193  0.80061221
   0.20081866  0.39290844  0.59846532
   0.05548517  0.14547414  0.20724034
   0.76899411  0.52880774  0.80212227
   0.69198973  0.40984185  0.60340152
   0.59685460  0.20131954  0.79942840
   0.53771715  0.06890458  0.60364227
   0.33054323  0.65711529  0.00058205
   0.23077473  0.46775739  0.19827639
SQS with 1 vacancy for VFE and VRV      
           1
    -3.200327   -3.156028   -3.192127
     1.519632    1.607472   -7.929474
     7.939713   -7.928930   -1.496164
   Nb   Mo   Ta   Ti   W 
   5   6   6   6   6
Direct configuration=     8
   0.95940035  0.93457801  0.39515096
   0.63227777  0.26527615  0.39992858
  -0.00027559 -0.00048679  0.00285316
   0.09685668  0.20484635  0.79870835
   0.03984927  0.06711254  0.59815692
   0.90747308  0.79643340  0.20244713
   0.80336191  0.59418754  0.39798468
   0.73164412  0.46649026  0.19916386
   0.66957915  0.33935976 -0.00216089
   0.36944515  0.72819285  0.60120519
   0.13379943  0.27218505  0.39948118
   0.82494010  0.67430714  0.00373963
   0.93172885  0.87192857  0.80033019
   0.56206613  0.12709255  0.18610239
   0.40886594  0.80015618  0.19059868
   0.43666079  0.86259676  0.80411962
   0.30179276  0.60333349  0.40312765
   0.85757204  0.73546609  0.59846901
   0.46642219  0.93035340  0.40362205
   0.18559960  0.31875401  0.00206225
   0.26913068  0.53394329  0.80074364
   0.20059459  0.39289041  0.59841678
   0.05409796  0.14654308  0.20773109
   0.76911924  0.53004863  0.80256263
   0.69178430  0.40915718  0.60351307
   0.59669501  0.20163898  0.79960688
   0.53779757  0.06883406  0.60381005
   0.33009196  0.65758188  0.00019732
   0.23162896  0.46719916  0.19832795
SQS with 1 vacancy for VFE and VRV      
           1
    -3.199946   -3.153468   -3.190268
     1.514962    1.605395   -7.919592
     7.934598   -7.922277   -1.491331
   Nb   Mo   Ta   Ti   W 
   5   6   6   6   6
Direct configuration=     9
   0.95901495  0.93474227  0.39519815
   0.63225897  0.26528694  0.39955393
   0.00005426 -0.00039617  0.00291728
   0.09712389  0.20438623  0.79865692
   0.03986806  0.06720102  0.59815300
   0.90801711  0.79621136  0.20224558
   0.80326804  0.59429987  0.39799991
   0.73132172  0.46649213  0.19931182
   0.67004422  0.33905333 -0.00218030
   0.36921300  0.72838142  0.60143761
   0.13367545  0.27223237  0.39965846
   0.82482134  0.67442520  0.00361350
   0.93205494  0.87197151  0.80047685
   0.56130694  0.12688495  0.18550380
   0.40863217  0.80031699  0.19070015
   0.43622671  0.86274725  0.80449796
   0.30209234  0.60350430  0.40273826
   0.85747633  0.73557676  0.59841595
   0.46648764  0.93022834  0.40347111
   0.18691046  0.31795242  0.00215909
   0.26899631  0.53373661  0.80080836
   0.20048414  0.39288148  0.59839281
   0.05341401  0.14707104  0.20797310
   0.76918061  0.53066151  0.80278003
   0.69168336  0.40881913  0.60356793
   0.59661629  0.20179677  0.79969493
   0.53783730  0.06879929  0.60389279
   0.32986920  0.65781216  0.00000761
   0.23205024  0.46692355  0.19835340
SQS with 1 vacancy for VFE and VRV      
           1
    -3.201521   -3.153016   -3.191648
     1.511267    1.605485   -7.918879
     7.934101   -7.921384   -1.487318
   Nb   Mo   Ta   Ti   W 
   5   6   6   6   6
Direct configuration=    10
   0.95878896  0.93481035  0.39518171
   0.63206454  0.26519693  0.39944879
   0.00058957 -0.00026387  0.00301653
   0.09697780  0.20464560  0.79867936
   0.03974963  0.06709948  0.59818576
   0.90794100  0.79611317  0.20214365
   0.80337017  0.59431267  0.39801587
   0.73133125  0.46665884  0.19916732
   0.67051201  0.33901609 -0.00221598
   0.36923778  0.72834680  0.60146156
   0.13356024  0.27233498  0.39971172
   0.82479187  0.67432476  0.00376853
   0.93171380  0.87210440  0.80033616
   0.56084818  0.12658254  0.18507773
   0.40871180  0.80038138  0.19057762
   0.43641247  0.86296957  0.80474246
   0.30202578  0.60356510  0.40280385
   0.85727921  0.73571544  0.59844285
   0.46638049  0.93023528  0.40337138
   0.18798967  0.31722305  0.00215808
   0.26919732  0.53360055  0.80089758
   0.20049763  0.39296856  0.59828346
   0.05267956  0.14739479  0.20817206
   0.76918625  0.53049436  0.80277462
   0.69147063  0.40903671  0.60374316
   0.59673634  0.20182574  0.79975789
   0.53786966  0.06877304  0.60389250
   0.33012542  0.65761897  0.00025224
   0.23196099  0.46691474  0.19815153
SQS with 1 vacancy for VFE and VRV      
           1
    -3.206248   -3.151660   -3.195788
     1.500180    1.605756   -7.916742
     7.932608   -7.918706   -1.475280
   Nb   Mo   Ta   Ti   W 
   5   6   6   6   6
Direct configuration=    11
   0.95811103  0.93501468  0.39513235
   0.63148141  0.26492678  0.39913320
   0.00219505  0.00013308  0.00331462
   0.09653929  0.20542395  0.79874681
   0.03939458  0.06679488  0.59828393
   0.90771277  0.79581844  0.20183774
   0.80367648  0.59435106  0.39806381
   0.73135948  0.46715892  0.19873390
   0.67191510  0.33890416 -0.00232287
   0.36931217  0.72824293  0.60153339
   0.13321461  0.27264296  0.39987154
   0.82470375  0.67402355  0.00423358
   0.93069032  0.87250310  0.79991401
   0.55947232  0.12567477  0.18379899
   0.40895045  0.80057443  0.19021009
   0.43696950  0.86363691  0.80547626
   0.30182610  0.60374765  0.40300064
   0.85668783  0.73613165  0.59852358
   0.46605903  0.93025604  0.40307212
   0.19122752  0.31503410  0.00215495
   0.26980045  0.53319232  0.80116527
   0.20053787  0.39322971  0.59795544
   0.05047642  0.14836672  0.20876894
   0.76920336  0.52999279  0.80275828
   0.69083240  0.40968987  0.60426896
   0.59709639  0.20191272  0.79994687
   0.53796676  0.06869425  0.60389163
   0.33089436  0.65703948  0.00098615
   0.23169318  0.46688811  0.19754581
SQS with 1 vacancy for VFE and VRV      
           1
    -3.208050   -3.154764   -3.197943
     1.501249    1.607367   -7.922334
     7.936033   -7.925262   -1.476462
   Nb   Mo   Ta   Ti   W 
   5   6   6   6   6
Direct configuration=    12
   0.95792267  0.93492708  0.39505423
   0.63117435  0.26506738  0.39915998
   0.00281459  0.00002710  0.00325394
   0.09670540  0.20570918  0.79864798
   0.03932466  0.06682639  0.59831271
   0.90751001  0.79594658  0.20190404
   0.80361344  0.59429288  0.39803596
   0.73157873  0.46704490  0.19872963
   0.67226355  0.33886720 -0.00220406
   0.36930596  0.72824921  0.60155011
   0.13288439  0.27278628  0.39986049
   0.82523661  0.67392975  0.00416948
   0.93103369  0.87239876  0.80010652
   0.55939631  0.12541169  0.18366359
   0.40871802  0.80047594  0.19022517
   0.43686647  0.86381335  0.80563962
   0.30164860  0.60374214  0.40310000
   0.85648776  0.73621565  0.59856856
   0.46572018  0.93037791  0.40301159
   0.19188878  0.31452688  0.00202895
   0.27014388  0.53320549  0.80128269
   0.20060338  0.39331567  0.59788524
   0.05009140  0.14844218  0.20877647
   0.76916216  0.52994919  0.80274663
   0.69069874  0.40992670  0.60425112
   0.59713249  0.20182768  0.79998146
   0.53758765  0.06880992  0.60383386
   0.33095753  0.65693243  0.00096218
   0.23152860  0.46695448  0.19746188
SQS with 1 vacancy for VFE and VRV      
           1
    -3.208125   -3.154892   -3.198032
     1.501293    1.607433   -7.922565
     7.936174   -7.925532   -1.476511
   Nb   Mo   Ta   Ti   W 
   5   6   6   6   6
Direct configuration=    13
   0.95791491  0.93492347  0.39505101
   0.63116170  0.26507318  0.39916108
   0.00284012  0.00002273  0.00325144
   0.09671225  0.20572094  0.79864391
   0.03932178  0.06682769  0.59831389
   0.90750165  0.79595186  0.20190678
   0.80361084  0.59429048  0.39803481
   0.73158777  0.46704021  0.19872945
   0.67227791  0.33886568 -0.00219916
   0.36930570  0.72824947  0.60155079
   0.13287079  0.27279218  0.39986004
   0.82525857  0.67392588  0.00416683
   0.93104784  0.87239446  0.80011445
   0.55939318  0.12540085  0.18365801
   0.40870844  0.80047188  0.19022579
   0.43686222  0.86382062  0.80564636
   0.30164128  0.60374191  0.40310409
   0.85647951  0.73621911  0.59857041
   0.46570622  0.93038293  0.40300909
   0.19191603  0.31450597  0.00202376
   0.27015803  0.53320604  0.80128752
   0.20060608  0.39331922  0.59788235
   0.05007553  0.14844529  0.20877678
   0.76916047  0.52994739  0.80274615
   0.69069323  0.40993646  0.60425038
   0.59713398  0.20182418  0.79998289
   0.53757203  0.06881469  0.60383148
   0.33096013  0.65692802  0.00096119
   0.23152181  0.46695721  0.19745842
SQS with 1 vacancy for VFE and VRV      
           1
    -3.206652   -3.155047   -3.196907
     1.501209    1.607442   -7.920317
     7.931869   -7.924604   -1.476628
   Nb   Mo   Ta   Ti   W 
   5   6   6   6   6
Direct configuration=    14
   0.95771603  0.93482594  0.39499560
   0.63086827  0.26523362  0.39920761
   0.00343131 -0.00012064  0.00315346
   0.09687299  0.20598735  0.79850160
   0.03919877  0.06690256  0.59833309
   0.90731437  0.79606031  0.20198786
   0.80347375  0.59422929  0.39799868
   0.73178050  0.46690216  0.19874452
   0.67259941  0.33882517 -0.00207554
   0.36926646  0.72827845  0.60156814
   0.13247748  0.27295877  0.39983186
   0.82581082  0.67380246  0.00407429
   0.93152529  0.87228411  0.80035037
   0.55937765  0.12520776  0.18360602
   0.40840700  0.80026278  0.19027227
   0.43676992  0.86396049  0.80577791
   0.30146095  0.60371567  0.40317389
   0.85626446  0.73631745  0.59862856
   0.46529010  0.93053855  0.40297765
   0.19246698  0.31407935  0.00187358
   0.27054299  0.53324768  0.80140265
   0.20067693  0.39339331  0.59782263
   0.04979245  0.14845781  0.20874107
   0.76914676  0.52995773  0.80273833
   0.69058797  0.41014486  0.60420714
   0.59723521  0.20172328  0.79997667
   0.53716445  0.06897530  0.60379405
   0.33110267  0.65682918  0.00090612
   0.23137806  0.46701926  0.19742995
SQS with 1 vacancy for VFE and VRV      
           1
    -3.205090   -3.155211   -3.195714
     1.501121    1.607451   -7.917933
     7.927302   -7.923620   -1.476751
   Nb   Mo   Ta   Ti   W 
   5   6   6   6   6
Direct configuration=    15
   0.95750503  0.93472243  0.39493682
   0.63055695  0.26540384  0.39925700
   0.00405858 -0.00027272  0.00304943
   0.09704363  0.20627000  0.79835059
   0.03906827  0.06698198  0.59835347
   0.90711565  0.79617537  0.20207392
   0.80332830  0.59416435  0.39796035
   0.73198495  0.46675571  0.19876048
   0.67294044  0.33878222 -0.00194441
   0.36922483  0.72830920  0.60158655
   0.13206023  0.27313548  0.39980202
   0.82639678  0.67367154  0.00397603
   0.93203172  0.87216709  0.80060066
   0.55936118  0.12500288  0.18355085
   0.40808712  0.80004092  0.19032162
   0.43667194  0.86410891  0.80591750
   0.30126959  0.60368782  0.40324797
   0.85603629  0.73642177  0.59869028
   0.46484863  0.93070361  0.40294433
   0.19305154  0.31362673  0.00171417
   0.27095136  0.53329191  0.80152477
   0.20075214  0.39347192  0.59775926
   0.04949213  0.14847107  0.20870320
   0.76913222  0.52996870  0.80273003
   0.69047634  0.41036596  0.60416127
   0.59734261  0.20161623  0.79997006
   0.53673206  0.06914568  0.60375438
   0.33125392  0.65672432  0.00084766
   0.23122556  0.46708509  0.19739975
SQS with 1 vacancy for VFE and VRV      
           1
    -3.205572   -3.155676   -3.196181
     1.500785    1.607638   -7.918478
     7.927472   -7.924289   -1.476432
   Nb   Mo   Ta   Ti   W 
   5   6   6   6   6
Direct configuration=    16
   0.95719513  0.93471226  0.39495677
   0.63025555  0.26547150  0.39926466
   0.00458549 -0.00033133  0.00299646
   0.09714179  0.20644210  0.79821666
   0.03877108  0.06706645  0.59837163
   0.90697280  0.79609742  0.20206030
   0.80306649  0.59422055  0.39795592
   0.73197348  0.46668403  0.19872351
   0.67326304  0.33863441 -0.00191588
   0.36907101  0.72842160  0.60161891
   0.13175752  0.27320891  0.39975915
   0.82669299  0.67350281  0.00397656
   0.93223611  0.87216763  0.80069708
   0.55926706  0.12488060  0.18357153
   0.40792808  0.79984600  0.19038034
   0.43686379  0.86428593  0.80597277
   0.30107846  0.60370566  0.40326149
   0.85584964  0.73656624  0.59876496
   0.46442478  0.93086971  0.40293508
   0.19346807  0.31333391  0.00159442
   0.27118302  0.53330135  0.80158340
   0.20076306  0.39359887  0.59774594
   0.04940962  0.14838877  0.20861537
   0.76929369  0.53005400  0.80274021
   0.69044541  0.41043577  0.60412893
   0.59758016  0.20156093  0.79996936
   0.53656901  0.06927240  0.60375904
   0.33167383  0.65659847  0.00087220
   0.23121984  0.46700305  0.19742323
SQS with 1 vacancy for VFE and VRV      
           1
    -3.206693   -3.156755   -3.197267
     1.500003    1.608072   -7.919744
     7.927867   -7.925844   -1.475692
   Nb   Mo   Ta   Ti   W 
   5   6   6   6   6
Direct configuration=    17
   0.95647507  0.93468862  0.39500313
   0.62955523  0.26562873  0.39928246
   0.00580979 -0.00046755  0.00287336
   0.09736984  0.20684200  0.79790548
   0.03808053  0.06726273  0.59841382
   0.90664090  0.79591629  0.20202865
   0.80245816  0.59435115  0.39794562
   0.73194685  0.46651746  0.19863760
   0.67401261  0.33829095 -0.00184961
   0.36871361  0.72868280  0.60169414
   0.13105414  0.27337952  0.39965953
   0.82738126  0.67311070  0.00397778
   0.93271102  0.87216892  0.80092114
   0.55904837  0.12459646  0.18361959
   0.40755855  0.79939305  0.19051680
   0.43730956  0.86469729  0.80610121
   0.30063435  0.60374712  0.40329291
   0.85541593  0.73690199  0.59893852
   0.46343995  0.93125567  0.40291358
   0.19443594  0.31265345  0.00131612
   0.27172129  0.53332331  0.80171964
   0.20078841  0.39389387  0.59771500
   0.04921792  0.14819752  0.20841127
   0.76966886  0.53025222  0.80276387
   0.69037355  0.41059801  0.60405379
   0.59813212  0.20143243  0.79996773
   0.53619013  0.06956686  0.60376987
   0.33264951  0.65630602  0.00092923
   0.23120655  0.46681241  0.19747776
