  29  29   0   0
  0.1632129E+02  0.5473281E-09  0.8209921E-09  0.1128346E-08  0.5000000E-15
  1.000000000000000E-004
  CAR 
 Nb - Mo - Ta - Ti - V SQS               
     11.14209243    -50.56009934  301      6.43189330      1.00000000
    -50.560  0.0000E+00  0.0000E+00
    -50.354  0.0000E+00  0.0000E+00
    -50.149  0.0000E+00  0.0000E+00
    -49.943  0.0000E+00  0.0000E+00
    -49.737  0.0000E+00  0.0000E+00
    -49.532 -0.1540E-34 -0.3168E-35
    -49.326 -0.4289E-27 -0.8822E-28
    -49.120 -0.1421E-20 -0.2922E-21
    -48.915 -0.5427E-15 -0.1116E-15
    -48.709 -0.2476E-10 -0.5092E-11
    -48.503 -0.1308E-06 -0.2691E-07
    -48.298 -0.7731E-04 -0.1593E-04
    -48.092 -0.4463E-02 -0.9338E-03
    -47.886  0.2943E-02 -0.3286E-03
    -47.681  0.2332E+00  0.4762E-01
    -47.475  0.3841E+00  0.1266E+00
    -47.269  0.3208E+00  0.1926E+00
    -47.064  0.4514E-01  0.2019E+00
    -46.858 -0.8853E-02  0.2001E+00
    -46.652 -0.3770E-03  0.2000E+00
    -46.447 -0.1372E-05  0.2000E+00
    -46.241 -0.5432E-09  0.2000E+00
    -46.035 -0.2458E-13  0.2000E+00
    -45.830  0.0000E+00  0.2000E+00
    -45.624  0.0000E+00  0.2000E+00
    -45.418  0.0000E+00  0.2000E+00
    -45.213  0.0000E+00  0.2000E+00
    -45.007  0.0000E+00  0.2000E+00
    -44.801  0.0000E+00  0.2000E+00
    -44.596  0.0000E+00  0.2000E+00
    -44.390  0.0000E+00  0.2000E+00
    -44.184  0.0000E+00  0.2000E+00
    -43.979  0.0000E+00  0.2000E+00
    -43.773  0.0000E+00  0.2000E+00
    -43.567  0.0000E+00  0.2000E+00
    -43.362  0.0000E+00  0.2000E+00
    -43.156  0.0000E+00  0.2000E+00
    -42.950  0.0000E+00  0.2000E+00
    -42.744  0.0000E+00  0.2000E+00
    -42.539  0.0000E+00  0.2000E+00
    -42.333  0.0000E+00  0.2000E+00
    -42.127  0.0000E+00  0.2000E+00
    -41.922  0.0000E+00  0.2000E+00
    -41.716  0.0000E+00  0.2000E+00
    -41.510  0.0000E+00  0.2000E+00
    -41.305  0.0000E+00  0.2000E+00
    -41.099  0.0000E+00  0.2000E+00
    -40.893  0.0000E+00  0.2000E+00
    -40.688  0.0000E+00  0.2000E+00
    -40.482  0.0000E+00  0.2000E+00
    -40.276  0.0000E+00  0.2000E+00
    -40.071  0.0000E+00  0.2000E+00
    -39.865  0.0000E+00  0.2000E+00
    -39.659  0.0000E+00  0.2000E+00
    -39.454  0.0000E+00  0.2000E+00
    -39.248  0.0000E+00  0.2000E+00
    -39.042  0.0000E+00  0.2000E+00
    -38.837  0.0000E+00  0.2000E+00
    -38.631  0.0000E+00  0.2000E+00
    -38.425  0.0000E+00  0.2000E+00
    -38.220  0.0000E+00  0.2000E+00
    -38.014  0.0000E+00  0.2000E+00
    -37.808  0.0000E+00  0.2000E+00
    -37.603  0.0000E+00  0.2000E+00
    -37.397  0.0000E+00  0.2000E+00
    -37.191  0.0000E+00  0.2000E+00
    -36.986  0.0000E+00  0.2000E+00
    -36.780  0.0000E+00  0.2000E+00
    -36.574  0.0000E+00  0.2000E+00
    -36.369  0.0000E+00  0.2000E+00
    -36.163  0.0000E+00  0.2000E+00
    -35.957  0.0000E+00  0.2000E+00
    -35.752  0.0000E+00  0.2000E+00
    -35.546  0.0000E+00  0.2000E+00
    -35.340  0.0000E+00  0.2000E+00
    -35.135  0.0000E+00  0.2000E+00
    -34.929  0.0000E+00  0.2000E+00
    -34.723  0.0000E+00  0.2000E+00
    -34.518  0.0000E+00  0.2000E+00
    -34.312  0.0000E+00  0.2000E+00
    -34.106  0.0000E+00  0.2000E+00
    -33.901  0.0000E+00  0.2000E+00
    -33.695  0.0000E+00  0.2000E+00
    -33.489  0.0000E+00  0.2000E+00
    -33.283  0.0000E+00  0.2000E+00
    -33.078  0.0000E+00  0.2000E+00
    -32.872  0.0000E+00  0.2000E+00
    -32.666  0.0000E+00  0.2000E+00
    -32.461  0.0000E+00  0.2000E+00
    -32.255  0.0000E+00  0.2000E+00
    -32.049  0.0000E+00  0.2000E+00
    -31.844  0.0000E+00  0.2000E+00
    -31.638  0.0000E+00  0.2000E+00
    -31.432  0.0000E+00  0.2000E+00
    -31.227  0.0000E+00  0.2000E+00
    -31.021  0.0000E+00  0.2000E+00
    -30.815  0.0000E+00  0.2000E+00
    -30.610  0.0000E+00  0.2000E+00
    -30.404  0.0000E+00  0.2000E+00
    -30.198  0.0000E+00  0.2000E+00
    -29.993  0.0000E+00  0.2000E+00
    -29.787  0.0000E+00  0.2000E+00
    -29.581  0.0000E+00  0.2000E+00
    -29.376  0.0000E+00  0.2000E+00
    -29.170  0.0000E+00  0.2000E+00
    -28.964  0.0000E+00  0.2000E+00
    -28.759  0.0000E+00  0.2000E+00
    -28.553  0.0000E+00  0.2000E+00
    -28.347  0.0000E+00  0.2000E+00
    -28.142  0.0000E+00  0.2000E+00
    -27.936  0.0000E+00  0.2000E+00
    -27.730  0.0000E+00  0.2000E+00
    -27.525  0.0000E+00  0.2000E+00
    -27.319  0.0000E+00  0.2000E+00
    -27.113  0.0000E+00  0.2000E+00
    -26.908  0.0000E+00  0.2000E+00
    -26.702  0.0000E+00  0.2000E+00
    -26.496  0.0000E+00  0.2000E+00
    -26.291  0.0000E+00  0.2000E+00
    -26.085 -0.1620E-32  0.2000E+00
    -25.879 -0.2096E-25  0.2000E+00
    -25.674 -0.3240E-19  0.2000E+00
    -25.468 -0.5785E-14  0.2000E+00
    -25.262 -0.1255E-09  0.2000E+00
    -25.057 -0.3192E-06  0.2000E+00
    -24.851 -0.9080E-04  0.2000E+00
    -24.645 -0.2281E-02  0.1995E+00
    -24.440  0.7643E-02  0.2011E+00
    -24.234  0.7649E-01  0.2168E+00
    -24.028  0.2666E+00  0.2716E+00
    -23.822  0.7323E+00  0.4223E+00
    -23.617  0.7913E+00  0.5850E+00
    -23.411  0.7067E+00  0.7304E+00
    -23.205  0.2478E+00  0.7813E+00
    -23.000  0.8626E-01  0.7991E+00
    -22.794  0.6880E-02  0.8005E+00
    -22.588 -0.2278E-02  0.8000E+00
    -22.383 -0.9306E-04  0.8000E+00
    -22.177 -0.3462E-06  0.8000E+00
    -21.971 -0.1449E-09  0.8000E+00
    -21.766 -0.7099E-14  0.8000E+00
    -21.560  0.0000E+00  0.8000E+00
    -21.354  0.0000E+00  0.8000E+00
    -21.149  0.0000E+00  0.8000E+00
    -20.943  0.0000E+00  0.8000E+00
    -20.737  0.0000E+00  0.8000E+00
    -20.532  0.0000E+00  0.8000E+00
    -20.326  0.0000E+00  0.8000E+00
    -20.120  0.0000E+00  0.8000E+00
    -19.915  0.0000E+00  0.8000E+00
    -19.709  0.0000E+00  0.8000E+00
    -19.503  0.0000E+00  0.8000E+00
    -19.298  0.0000E+00  0.8000E+00
    -19.092  0.0000E+00  0.8000E+00
    -18.886  0.0000E+00  0.8000E+00
    -18.681  0.0000E+00  0.8000E+00
    -18.475  0.0000E+00  0.8000E+00
    -18.269  0.0000E+00  0.8000E+00
    -18.064  0.0000E+00  0.8000E+00
    -17.858  0.0000E+00  0.8000E+00
    -17.652  0.0000E+00  0.8000E+00
    -17.447  0.0000E+00  0.8000E+00
    -17.241  0.0000E+00  0.8000E+00
    -17.035  0.0000E+00  0.8000E+00
    -16.830  0.0000E+00  0.8000E+00
    -16.624  0.0000E+00  0.8000E+00
    -16.418  0.0000E+00  0.8000E+00
    -16.213  0.0000E+00  0.8000E+00
    -16.007  0.0000E+00  0.8000E+00
    -15.801  0.0000E+00  0.8000E+00
    -15.596  0.0000E+00  0.8000E+00
    -15.390  0.0000E+00  0.8000E+00
    -15.184  0.0000E+00  0.8000E+00
    -14.979  0.0000E+00  0.8000E+00
    -14.773  0.0000E+00  0.8000E+00
    -14.567  0.0000E+00  0.8000E+00
    -14.361  0.0000E+00  0.8000E+00
    -14.156  0.0000E+00  0.8000E+00
    -13.950  0.0000E+00  0.8000E+00
    -13.744  0.0000E+00  0.8000E+00
    -13.539  0.0000E+00  0.8000E+00
    -13.333  0.0000E+00  0.8000E+00
    -13.127  0.0000E+00  0.8000E+00
    -12.922  0.0000E+00  0.8000E+00
    -12.716  0.0000E+00  0.8000E+00
    -12.510  0.0000E+00  0.8000E+00
    -12.305  0.0000E+00  0.8000E+00
    -12.099  0.0000E+00  0.8000E+00
    -11.893  0.0000E+00  0.8000E+00
    -11.688  0.0000E+00  0.8000E+00
    -11.482  0.0000E+00  0.8000E+00
    -11.276  0.0000E+00  0.8000E+00
    -11.071  0.0000E+00  0.8000E+00
    -10.865  0.0000E+00  0.8000E+00
    -10.659  0.0000E+00  0.8000E+00
    -10.454  0.0000E+00  0.8000E+00
    -10.248  0.0000E+00  0.8000E+00
    -10.042  0.0000E+00  0.8000E+00
     -9.837  0.0000E+00  0.8000E+00
     -9.631  0.0000E+00  0.8000E+00
     -9.425  0.0000E+00  0.8000E+00
     -9.220  0.0000E+00  0.8000E+00
     -9.014  0.0000E+00  0.8000E+00
     -8.808  0.0000E+00  0.8000E+00
     -8.603  0.0000E+00  0.8000E+00
     -8.397  0.0000E+00  0.8000E+00
     -8.191  0.0000E+00  0.8000E+00
     -7.986  0.0000E+00  0.8000E+00
     -7.780  0.0000E+00  0.8000E+00
     -7.574  0.0000E+00  0.8000E+00
     -7.369  0.0000E+00  0.8000E+00
     -7.163  0.0000E+00  0.8000E+00
     -6.957  0.0000E+00  0.8000E+00
     -6.752  0.0000E+00  0.8000E+00
     -6.546  0.0000E+00  0.8000E+00
     -6.340  0.0000E+00  0.8000E+00
     -6.135  0.0000E+00  0.8000E+00
     -5.929  0.0000E+00  0.8000E+00
     -5.723  0.0000E+00  0.8000E+00
     -5.517  0.0000E+00  0.8000E+00
     -5.312  0.0000E+00  0.8000E+00
     -5.106  0.0000E+00  0.8000E+00
     -4.900  0.0000E+00  0.8000E+00
     -4.695  0.0000E+00  0.8000E+00
     -4.489  0.0000E+00  0.8000E+00
     -4.283  0.0000E+00  0.8000E+00
     -4.078  0.0000E+00  0.8000E+00
     -3.872  0.0000E+00  0.8000E+00
     -3.666  0.0000E+00  0.8000E+00
     -3.461  0.0000E+00  0.8000E+00
     -3.255  0.0000E+00  0.8000E+00
     -3.049  0.0000E+00  0.8000E+00
     -2.844  0.0000E+00  0.8000E+00
     -2.638  0.0000E+00  0.8000E+00
     -2.432  0.0000E+00  0.8000E+00
     -2.227  0.0000E+00  0.8000E+00
     -2.021 -0.8261E-31  0.8000E+00
     -1.815 -0.4230E-24  0.8000E+00
     -1.610 -0.2620E-18  0.8000E+00
     -1.404 -0.1896E-13  0.8000E+00
     -1.198 -0.1711E-09  0.8000E+00
     -0.993 -0.1878E-06  0.8000E+00
     -0.787 -0.2483E-04  0.8000E+00
     -0.581 -0.3240E-03  0.7999E+00
     -0.376  0.1779E-02  0.8003E+00
     -0.170  0.1466E-01  0.8033E+00
      0.036  0.2487E-01  0.8084E+00
      0.241  0.3326E-01  0.8153E+00
      0.447  0.4257E-01  0.8240E+00
      0.653  0.3616E-01  0.8315E+00
      0.858  0.5059E-01  0.8419E+00
      1.064  0.6293E-01  0.8548E+00
      1.270  0.6400E-01  0.8680E+00
      1.475  0.7205E-01  0.8828E+00
      1.681  0.8457E-01  0.9002E+00
      1.887  0.9764E-01  0.9203E+00
      2.092  0.1184E+00  0.9446E+00
      2.298  0.1803E+00  0.9817E+00
      2.504  0.2999E+00  0.1043E+01
      2.709  0.4008E+00  0.1126E+01
      2.915  0.4928E+00  0.1227E+01
      3.121  0.5484E+00  0.1340E+01
      3.326  0.6049E+00  0.1464E+01
      3.532  0.5979E+00  0.1587E+01
      3.738  0.6064E+00  0.1712E+01
      3.944  0.6189E+00  0.1839E+01
      4.149  0.5749E+00  0.1958E+01
      4.355  0.5313E+00  0.2067E+01
      4.561  0.5878E+00  0.2188E+01
      4.766  0.6947E+00  0.2331E+01
      4.972  0.8073E+00  0.2497E+01
      5.178  0.8398E+00  0.2669E+01
      5.383  0.8293E+00  0.2840E+01
      5.589  0.8036E+00  0.3005E+01
      5.795  0.8319E+00  0.3176E+01
      6.000  0.8531E+00  0.3352E+01
      6.206  0.8365E+00  0.3524E+01
      6.412  0.7822E+00  0.3685E+01
      6.617  0.7142E+00  0.3832E+01
      6.823  0.5743E+00  0.3950E+01
      7.029  0.4536E+00  0.4043E+01
      7.234  0.3967E+00  0.4125E+01
      7.440  0.4126E+00  0.4210E+01
      7.646  0.4303E+00  0.4298E+01
      7.851  0.4285E+00  0.4386E+01
      8.057  0.3182E+00  0.4452E+01
      8.263  0.1293E+00  0.4478E+01
      8.468  0.1105E-01  0.4481E+01
      8.674 -0.2512E-02  0.4480E+01
      8.880 -0.2140E-03  0.4480E+01
      9.085 -0.2243E-05  0.4480E+01
      9.291 -0.3051E-08  0.4480E+01
      9.497 -0.5143E-12  0.4480E+01
      9.702 -0.1032E-16  0.4480E+01
      9.908  0.0000E+00  0.4480E+01
     10.114  0.0000E+00  0.4480E+01
     10.319  0.0000E+00  0.4480E+01
     10.525  0.0000E+00  0.4480E+01
     10.731  0.0000E+00  0.4480E+01
     10.936  0.0000E+00  0.4480E+01
     11.142  0.0000E+00  0.4480E+01
