   29   29   50    1
  0.1632129E+02  0.5473281E-09  0.8209921E-09  0.1128346E-08  0.5000000E-15
  1.000000000000000E-004
  CAR 
 Nb - Mo - Ta - Ti - V SQS               
    185    172    112
 
  0.0000000E+00  0.0000000E+00  0.0000000E+00  0.2915452E-02
    1      -47.755454   1.000000
    2      -47.669022   1.000000
    3      -47.534737   1.000000
    4      -47.432709   1.000000
    5      -47.330903   1.000000
    6      -24.378275   1.000000
    7      -24.115658   1.000000
    8      -23.949932   1.000000
    9      -23.910693   1.000000
   10      -23.884235   1.000000
   11      -23.847170   1.000000
   12      -23.817767   1.000000
   13      -23.709938   1.000000
   14      -23.623578   1.000000
   15      -23.614120   1.000000
   16      -23.536232   1.000000
   17      -23.524647   1.000000
   18      -23.519693   1.000000
   19      -23.291806   1.000000
   20      -23.056552   1.000000
   21       -0.408015   1.000000
   22        0.977838   1.000000
   23        1.232083   1.000000
   24        2.050094   1.000000
   25        2.187240   1.000000
   26        2.247751   1.000000
   27        2.363599   1.000000
   28        2.468184   1.000000
   29        2.539826   1.000000
   30        2.601356   1.000000
   31        2.686139   1.000000
   32        2.733793   1.000000
   33        2.867888   1.000000
   34        2.918139   1.000000
   35        2.921427   1.000000
   36        3.042823   1.000000
   37        3.084113   1.000000
   38        3.166213   1.000000
   39        3.259168   1.000000
   40        3.368435   1.000000
   41        3.421690   1.000000
   42        3.457443   1.000000
   43        3.539567   1.000000
   44        3.616701   1.000000
   45        3.644397   1.000000
   46        3.726097   1.000000
   47        3.760261   1.000000
   48        3.865507   1.000000
   49        3.984123   1.000000
   50        4.055207   1.000000
   51        4.131038   1.000000
   52        4.233592   1.000000
   53        4.268716   1.000000
   54        4.364858   1.000000
   55        4.440986   1.000000
   56        4.524233   1.000000
   57        4.577113   1.000000
   58        4.634281   1.000000
   59        4.677528   1.000000
   60        4.713198   1.000000
   61        4.844963   1.000000
   62        4.891865   1.000000
   63        4.911187   1.000000
   64        4.926512   1.000000
   65        4.981430   1.000000
   66        5.010086   1.000000
   67        5.097984   1.000000
   68        5.160758   1.000000
   69        5.207126   1.000000
   70        5.241870   1.000000
   71        5.294164   1.000000
   72        5.331254   1.000000
   73        5.446962   1.000000
   74        5.538633   1.000000
   75        5.605495   1.000000
   76        5.691110   1.000001
   77        5.748531   1.000008
   78        5.803535   1.000041
   79        5.898220   1.000528
   80        5.920193   1.000888
   81        5.944961   1.001543
   82        6.014238   1.005949
   83        6.066714   1.013456
   84        6.082558   1.016562
   85        6.126493   1.026433
   86        6.150272   1.031472
   87        6.272446   0.989337
   88        6.347973   0.822804
   89        6.460824   0.378991
   90        6.493416   0.252829
   91        6.552187   0.079328
   92        6.565028   0.052686
   93        6.615193  -0.014151
   94        6.662374  -0.034570
   95        6.772364  -0.018445
   96        6.852827  -0.005618
   97        6.876587  -0.003639
   98        6.950553  -0.000756
   99        7.152718  -0.000002
  100        7.268205  -0.000000
  101        7.355400  -0.000000
  102        7.399537  -0.000000
  103        7.546765  -0.000000
  104        7.610146  -0.000000
  105        7.750945  -0.000000
  106        7.817688  -0.000000
  107        8.014151  -0.000000
  108        8.041956  -0.000000
  109        8.067364  -0.000000
  110        8.180601  -0.000000
  111        8.217320  -0.000000
  112        8.332471  -0.000000
 
  0.1428571E+00  0.0000000E+00 -0.1561251E-16  0.5830904E-02
    1      -47.752659   1.000000
    2      -47.668853   1.000000
    3      -47.534304   1.000000
    4      -47.432814   1.000000
    5      -47.334001   1.000000
    6      -24.321321   1.000000
    7      -24.113891   1.000000
    8      -23.949645   1.000000
    9      -23.907633   1.000000
   10      -23.880999   1.000000
   11      -23.847727   1.000000
   12      -23.819716   1.000000
   13      -23.712320   1.000000
   14      -23.624063   1.000000
   15      -23.616289   1.000000
   16      -23.539652   1.000000
   17      -23.528202   1.000000
   18      -23.520346   1.000000
   19      -23.296113   1.000000
   20      -23.122487   1.000000
   21       -0.245651   1.000000
   22        1.120645   1.000000
   23        1.372736   1.000000
   24        2.075571   1.000000
   25        2.304093   1.000000
   26        2.373560   1.000000
   27        2.462006   1.000000
   28        2.576244   1.000000
   29        2.623519   1.000000
   30        2.629890   1.000000
   31        2.802013   1.000000
   32        2.845567   1.000000
   33        2.938136   1.000000
   34        2.997545   1.000000
   35        3.037014   1.000000
   36        3.089614   1.000000
   37        3.159490   1.000000
   38        3.233194   1.000000
   39        3.322019   1.000000
   40        3.383648   1.000000
   41        3.461872   1.000000
   42        3.549770   1.000000
   43        3.597198   1.000000
   44        3.664792   1.000000
   45        3.682158   1.000000
   46        3.749094   1.000000
   47        3.836081   1.000000
   48        3.934845   1.000000
   49        4.017579   1.000000
   50        4.049959   1.000000
   51        4.174510   1.000000
   52        4.257867   1.000000
   53        4.313383   1.000000
   54        4.412829   1.000000
   55        4.454383   1.000000
   56        4.497891   1.000000
   57        4.609444   1.000000
   58        4.701019   1.000000
   59        4.728710   1.000000
   60        4.808734   1.000000
   61        4.860150   1.000000
   62        4.914173   1.000000
   63        4.945624   1.000000
   64        4.981674   1.000000
   65        5.018137   1.000000
   66        5.076713   1.000000
   67        5.095751   1.000000
   68        5.160697   1.000000
   69        5.233998   1.000000
   70        5.276114   1.000000
   71        5.341065   1.000000
   72        5.368179   1.000000
   73        5.451551   1.000000
   74        5.495536   1.000000
   75        5.579709   1.000000
   76        5.628379   1.000000
   77        5.688024   1.000001
   78        5.748878   1.000008
   79        5.834117   1.000099
   80        5.875399   1.000299
   81        5.894989   1.000488
   82        5.965028   1.002350
   83        6.037961   1.008807
   84        6.072833   1.014613
   85        6.147053   1.030854
   86        6.186453   1.035457
   87        6.211363   1.032762
   88        6.253009   1.010419
   89        6.360152   0.782995
   90        6.427300   0.519430
   91        6.459023   0.386367
   92        6.525683   0.147431
   93        6.551923   0.079919
   94        6.587190   0.016216
   95        6.692140  -0.034647
   96        6.748596  -0.023829
   97        6.797564  -0.013365
   98        6.908919  -0.001905
   99        7.002166  -0.000209
  100        7.055004  -0.000048
  101        7.157326  -0.000002
  102        7.257066  -0.000000
  103        7.426289  -0.000000
  104        7.503397  -0.000000
  105        7.585294  -0.000000
  106        7.708765  -0.000000
  107        7.865763  -0.000000
  108        7.884890  -0.000000
  109        7.968999  -0.000000
  110        8.011127  -0.000000
  111        8.041537  -0.000000
  112        8.102683  -0.000000
 
  0.2857143E+00  0.1387779E-16  0.3469447E-17  0.5830904E-02
    1      -47.746222   1.000000
    2      -47.668475   1.000000
    3      -47.533325   1.000000
    4      -47.433054   1.000000
    5      -47.341116   1.000000
    6      -24.163107   1.000000
    7      -24.110021   1.000000
    8      -23.948858   1.000000
    9      -23.900483   1.000000
   10      -23.873500   1.000000
   11      -23.849061   1.000000
   12      -23.824004   1.000000
   13      -23.717819   1.000000
   14      -23.625719   1.000000
   15      -23.620421   1.000000
   16      -23.547698   1.000000
   17      -23.536504   1.000000
   18      -23.521779   1.000000
   19      -23.305935   1.000000
   20      -23.300621   1.000000
   21        0.215330   1.000000
   22        1.498096   1.000000
   23        1.750565   1.000000
   24        2.197816   1.000000
   25        2.424460   1.000000
   26        2.560257   1.000000
   27        2.675855   1.000000
   28        2.738316   1.000000
   29        2.787575   1.000000
   30        2.891954   1.000000
   31        2.984840   1.000000
   32        3.046254   1.000000
   33        3.106939   1.000000
   34        3.170897   1.000000
   35        3.210368   1.000000
   36        3.303850   1.000000
   37        3.350565   1.000000
   38        3.427093   1.000000
   39        3.473639   1.000000
   40        3.520309   1.000000
   41        3.569160   1.000000
   42        3.621635   1.000000
   43        3.699310   1.000000
   44        3.770546   1.000000
   45        3.860615   1.000000
   46        3.926353   1.000000
   47        3.971236   1.000000
   48        4.042402   1.000000
   49        4.136753   1.000000
   50        4.219945   1.000000
   51        4.299607   1.000000
   52        4.336237   1.000000
   53        4.408559   1.000000
   54        4.465415   1.000000
   55        4.517206   1.000000
   56        4.595363   1.000000
   57        4.625682   1.000000
   58        4.739179   1.000000
   59        4.802953   1.000000
   60        4.844191   1.000000
   61        4.925366   1.000000
   62        4.949997   1.000000
   63        4.979276   1.000000
   64        5.024019   1.000000
   65        5.072673   1.000000
   66        5.123873   1.000000
   67        5.162134   1.000000
   68        5.251559   1.000000
   69        5.280844   1.000000
   70        5.325298   1.000000
   71        5.396549   1.000000
   72        5.405845   1.000000
   73        5.447496   1.000000
   74        5.489282   1.000000
   75        5.533586   1.000000
   76        5.559349   1.000000
   77        5.645448   1.000000
   78        5.677916   1.000001
   79        5.722845   1.000003
   80        5.762839   1.000012
   81        5.829291   1.000087
   82        5.910908   1.000715
   83        5.960304   1.002133
   84        5.984336   1.003445
   85        6.038080   1.008824
   86        6.079385   1.015912
   87        6.174308   1.034894
   88        6.181618   1.035352
   89        6.254720   1.008873
   90        6.287761   0.966879
   91        6.335432   0.860224
   92        6.385966   0.688768
   93        6.432990   0.495359
   94        6.496653   0.241255
   95        6.552795   0.077973
   96        6.575761   0.033557
   97        6.654675  -0.033268
   98        6.674342  -0.035433
   99        6.740403  -0.025721
  100        6.861776  -0.004790
  101        6.921917  -0.001443
  102        7.019614  -0.000131
  103        7.076276  -0.000026
  104        7.150526  -0.000002
  105        7.286275  -0.000000
  106        7.364091  -0.000000
  107        7.441134  -0.000000
  108        7.513762  -0.000000
  109        7.608067  -0.000000
  110        7.666447  -0.000000
  111        7.713811  -0.000000
  112        7.773549  -0.000000
 
  0.4285714E+00  0.5551115E-16 -0.4163336E-16  0.5830904E-02
    1      -47.740893   1.000000
    2      -47.668171   1.000000
    3      -47.532534   1.000000
    4      -47.433252   1.000000
    5      -47.346990   1.000000
    6      -24.107036   1.000000
    7      -23.958339   1.000000
    8      -23.948055   1.000000
    9      -23.893303   1.000000
   10      -23.867369   1.000000
   11      -23.850188   1.000000
   12      -23.827333   1.000000
   13      -23.722344   1.000000
   14      -23.628254   1.000000
   15      -23.622375   1.000000
   16      -23.558435   1.000000
   17      -23.545566   1.000000
   18      -23.522914   1.000000
   19      -23.516267   1.000000
   20      -23.313827   1.000000
   21        0.884479   1.000000
   22        1.647951   1.000000
   23        2.131387   1.000000
   24        2.281090   1.000000
   25        2.385680   1.000000
   26        2.653797   1.000000
   27        2.736729   1.000000
   28        2.883855   1.000000
   29        2.991928   1.000000
   30        3.073168   1.000000
   31        3.119069   1.000000
   32        3.170835   1.000000
   33        3.221215   1.000000
   34        3.282753   1.000000
   35        3.350836   1.000000
   36        3.481227   1.000000
   37        3.538226   1.000000
   38        3.582342   1.000000
   39        3.647161   1.000000
   40        3.714622   1.000000
   41        3.732897   1.000000
   42        3.805108   1.000000
   43        3.857116   1.000000
   44        3.910971   1.000000
   45        3.972101   1.000000
   46        4.020905   1.000000
   47        4.118276   1.000000
   48        4.180601   1.000000
   49        4.241996   1.000000
   50        4.308304   1.000000
   51        4.363256   1.000000
   52        4.484819   1.000000
   53        4.542097   1.000000
   54        4.589725   1.000000
   55        4.610709   1.000000
   56        4.663185   1.000000
   57        4.701633   1.000000
   58        4.733089   1.000000
   59        4.777358   1.000000
   60        4.852138   1.000000
   61        4.859891   1.000000
   62        4.924077   1.000000
   63        4.962516   1.000000
   64        5.013186   1.000000
   65        5.075325   1.000000
   66        5.145502   1.000000
   67        5.178801   1.000000
   68        5.225895   1.000000
   69        5.306938   1.000000
   70        5.345070   1.000000
   71        5.366534   1.000000
   72        5.414853   1.000000
   73        5.442177   1.000000
   74        5.482550   1.000000
   75        5.529807   1.000000
   76        5.630820   1.000000
   77        5.669106   1.000000
   78        5.706793   1.000002
   79        5.732626   1.000004
   80        5.767465   1.000014
   81        5.802279   1.000040
   82        5.866897   1.000240
   83        5.903575   1.000601
   84        5.931177   1.001140
   85        5.944765   1.001536
   86        5.969830   1.002590
   87        6.063873   1.012938
   88        6.086403   1.017368
   89        6.119367   1.024795
   90        6.135110   1.028362
   91        6.237705   1.021843
   92        6.263055   1.000506
   93        6.311032   0.921937
   94        6.358210   0.789561
   95        6.409651   0.593474
   96        6.481462   0.297231
   97        6.581699   0.024166
   98        6.618581  -0.016769
   99        6.701665  -0.033464
  100        6.770445  -0.018864
  101        6.810003  -0.011202
  102        6.892860  -0.002648
  103        6.936737  -0.001038
  104        6.993846  -0.000260
  105        7.044191  -0.000066
  106        7.178266  -0.000001
  107        7.241593  -0.000000
  108        7.355726  -0.000000
  109        7.374645  -0.000000
  110        7.493218  -0.000000
  111        7.570540  -0.000000
  112        7.623303  -0.000000
 
 -0.6938894E-17  0.1428571E+00  0.1040834E-16  0.5830904E-02
    1      -47.755452   1.000000
    2      -47.669012   1.000000
    3      -47.534489   1.000000
    4      -47.432972   1.000000
    5      -47.330901   1.000000
    6      -24.378281   1.000000
    7      -24.112987   1.000000
    8      -23.949037   1.000000
    9      -23.910722   1.000000
   10      -23.884276   1.000000
   11      -23.847138   1.000000
   12      -23.817762   1.000000
   13      -23.710106   1.000000
   14      -23.623568   1.000000
   15      -23.613942   1.000000
   16      -23.536236   1.000000
   17      -23.524727   1.000000
   18      -23.519720   1.000000
   19      -23.295938   1.000000
   20      -23.056559   1.000000
   21       -0.338966   1.000000
   22        0.998966   1.000000
   23        1.304810   1.000000
   24        1.793968   1.000000
   25        2.202959   1.000000
   26        2.274113   1.000000
   27        2.351464   1.000000
   28        2.479387   1.000000
   29        2.528357   1.000000
   30        2.615265   1.000000
   31        2.706009   1.000000
   32        2.750207   1.000000
   33        2.801305   1.000000
   34        2.865564   1.000000
   35        2.930044   1.000000
   36        2.999100   1.000000
   37        3.121604   1.000000
   38        3.216336   1.000000
   39        3.269652   1.000000
   40        3.329755   1.000000
   41        3.449986   1.000000
   42        3.486095   1.000000
   43        3.565425   1.000000
   44        3.629118   1.000000
   45        3.691925   1.000000
   46        3.719340   1.000000
   47        3.807186   1.000000
   48        3.895105   1.000000
   49        3.940130   1.000000
   50        4.028573   1.000000
   51        4.157036   1.000000
   52        4.245675   1.000000
   53        4.270048   1.000000
   54        4.369299   1.000000
   55        4.421804   1.000000
   56        4.527617   1.000000
   57        4.592037   1.000000
   58        4.651809   1.000000
   59        4.697514   1.000000
   60        4.797684   1.000000
   61        4.842975   1.000000
   62        4.876438   1.000000
   63        4.921490   1.000000
   64        4.968488   1.000000
   65        5.016557   1.000000
   66        5.072617   1.000000
   67        5.133671   1.000000
   68        5.143395   1.000000
   69        5.226736   1.000000
   70        5.280177   1.000000
   71        5.321120   1.000000
   72        5.332514   1.000000
   73        5.444626   1.000000
   74        5.531254   1.000000
   75        5.621222   1.000000
   76        5.691009   1.000001
   77        5.769447   1.000015
   78        5.793749   1.000031
   79        5.833672   1.000098
   80        5.886815   1.000399
   81        5.962294   1.002223
   82        5.995494   1.004252
   83        6.023847   1.007005
   84        6.063732   1.012913
   85        6.099719   1.020282
   86        6.145018   1.030450
   87        6.219015   1.030583
   88        6.333961   0.864367
   89        6.369809   0.749195
   90        6.441834   0.457992
   91        6.481184   0.298291
   92        6.530534   0.133658
   93        6.610546  -0.010213
   94        6.659277  -0.034122
   95        6.754114  -0.022553
   96        6.826316  -0.008739
   97        6.903565  -0.002130
   98        7.052772  -0.000051
   99        7.245453  -0.000000
  100        7.286295  -0.000000
  101        7.334343  -0.000000
  102        7.443778  -0.000000
  103        7.522260  -0.000000
  104        7.632780  -0.000000
  105        7.668114  -0.000000
  106        7.764277  -0.000000
  107        7.871683  -0.000000
  108        7.996688  -0.000000
  109        8.026801  -0.000000
  110        8.092095  -0.000000
  111        8.148767  -0.000000
  112        8.223075  -0.000000
 
  0.1428571E+00  0.1428571E+00 -0.1387779E-16  0.5830904E-02
    1      -47.752660   1.000000
    2      -47.668862   1.000000
    3      -47.534542   1.000000
    4      -47.432561   1.000000
    5      -47.334003   1.000000
    6      -24.321311   1.000000
    7      -24.116466   1.000000
    8      -23.950550   1.000000
    9      -23.907615   1.000000
   10      -23.880973   1.000000
   11      -23.847761   1.000000
   12      -23.819712   1.000000
   13      -23.712346   1.000000
   14      -23.624112   1.000000
   15      -23.616244   1.000000
   16      -23.539649   1.000000
   17      -23.528120   1.000000
   18      -23.520273   1.000000
   19      -23.292154   1.000000
   20      -23.122480   1.000000
   21       -0.243655   1.000000
   22        1.089106   1.000000
   23        1.398615   1.000000
   24        2.071672   1.000000
   25        2.280030   1.000000
   26        2.380681   1.000000
   27        2.463539   1.000000
   28        2.520327   1.000000
   29        2.578261   1.000000
   30        2.658770   1.000000
   31        2.717816   1.000000
   32        2.795047   1.000000
   33        2.907234   1.000000
   34        2.966218   1.000000
   35        3.039022   1.000000
   36        3.092838   1.000000
   37        3.154374   1.000000
   38        3.279053   1.000000
   39        3.341707   1.000000
   40        3.412965   1.000000
   41        3.446432   1.000000
   42        3.508409   1.000000
   43        3.619571   1.000000
   44        3.680989   1.000000
   45        3.704532   1.000000
   46        3.768847   1.000000
   47        3.858255   1.000000
   48        3.936208   1.000000
   49        4.018391   1.000000
   50        4.121349   1.000000
   51        4.161209   1.000000
   52        4.298877   1.000000
   53        4.322247   1.000000
   54        4.391029   1.000000
   55        4.488366   1.000000
   56        4.558694   1.000000
   57        4.595864   1.000000
   58        4.631307   1.000000
   59        4.699800   1.000000
   60        4.759498   1.000000
   61        4.848951   1.000000
   62        4.875557   1.000000
   63        4.919099   1.000000
   64        4.956335   1.000000
   65        5.020747   1.000000
   66        5.085976   1.000000
   67        5.106745   1.000000
   68        5.153784   1.000000
   69        5.192275   1.000000
   70        5.250350   1.000000
   71        5.329005   1.000000
   72        5.360445   1.000000
   73        5.425357   1.000000
   74        5.496926   1.000000
   75        5.540059   1.000000
   76        5.643623   1.000000
   77        5.682983   1.000001
   78        5.762813   1.000012
   79        5.792968   1.000030
   80        5.811720   1.000053
   81        5.913354   1.000758
   82        5.995985   1.004290
   83        6.058678   1.012024
   84        6.080238   1.016085
   85        6.121271   1.025235
   86        6.185390   1.035449
   87        6.253602   1.009889
   88        6.304892   0.935104
   89        6.394031   0.657067
   90        6.457828   0.391277
   91        6.494533   0.248813
   92        6.536166   0.118394
   93        6.582677   0.022699
   94        6.626241  -0.021940
   95        6.693630  -0.034492
   96        6.743514  -0.025005
   97        6.808384  -0.011469
   98        6.904070  -0.002107
   99        7.054263  -0.000049
  100        7.073571  -0.000028
  101        7.140558  -0.000003
  102        7.246020  -0.000000
  103        7.432731  -0.000000
  104        7.502834  -0.000000
  105        7.553995  -0.000000
  106        7.605414  -0.000000
  107        7.838002  -0.000000
  108        7.956335  -0.000000
  109        8.016797  -0.000000
  110        8.106874  -0.000000
  111        8.210593  -0.000000
  112        8.232295  -0.000000
 
  0.2857143E+00  0.1428571E+00  0.2775558E-16  0.5830904E-02
    1      -47.746226   1.000000
    2      -47.668495   1.000000
    3      -47.533872   1.000000
    4      -47.432474   1.000000
    5      -47.341122   1.000000
    6      -24.163087   1.000000
    7      -24.115813   1.000000
    8      -23.951047   1.000000
    9      -23.900433   1.000000
   10      -23.873434   1.000000
   11      -23.849151   1.000000
   12      -23.824012   1.000000
   13      -23.717757   1.000000
   14      -23.625760   1.000000
   15      -23.620502   1.000000
   16      -23.547690   1.000000
   17      -23.536320   1.000000
   18      -23.521626   1.000000
   19      -23.300716   1.000000
   20      -23.296699   1.000000
   21        0.156116   1.000000
   22        1.410144   1.000000
   23        1.725176   1.000000
   24        2.295586   1.000000
   25        2.361069   1.000000
   26        2.538305   1.000000
   27        2.670825   1.000000
   28        2.741548   1.000000
   29        2.812776   1.000000
   30        2.871454   1.000000
   31        2.928636   1.000000
   32        2.995514   1.000000
   33        3.082951   1.000000
   34        3.182563   1.000000
   35        3.241265   1.000000
   36        3.299273   1.000000
   37        3.349025   1.000000
   38        3.418029   1.000000
   39        3.452437   1.000000
   40        3.532495   1.000000
   41        3.601936   1.000000
   42        3.652349   1.000000
   43        3.733501   1.000000
   44        3.783859   1.000000
   45        3.830089   1.000000
   46        3.903107   1.000000
   47        3.978591   1.000000
   48        4.035563   1.000000
   49        4.106635   1.000000
   50        4.218631   1.000000
   51        4.261904   1.000000
   52        4.336004   1.000000
   53        4.417637   1.000000
   54        4.449711   1.000000
   55        4.527391   1.000000
   56        4.594561   1.000000
   57        4.660814   1.000000
   58        4.705837   1.000000
   59        4.781606   1.000000
   60        4.840995   1.000000
   61        4.868222   1.000000
   62        4.930924   1.000000
   63        4.963768   1.000000
   64        5.040250   1.000000
   65        5.058445   1.000000
   66        5.107168   1.000000
   67        5.151827   1.000000
   68        5.187835   1.000000
   69        5.210350   1.000000
   70        5.268967   1.000000
   71        5.321138   1.000000
   72        5.414075   1.000000
   73        5.450827   1.000000
   74        5.491586   1.000000
   75        5.531136   1.000000
   76        5.573558   1.000000
   77        5.625750   1.000000
   78        5.699792   1.000001
   79        5.768498   1.000014
   80        5.788529   1.000026
   81        5.865377   1.000231
   82        5.912521   1.000743
   83        5.973421   1.002783
   84        5.983459   1.003387
   85        6.034435   1.008328
   86        6.102050   1.020809
   87        6.134092   1.028139
   88        6.183177   1.035405
   89        6.246407   1.015865
   90        6.293189   0.957592
   91        6.346062   0.828746
   92        6.353999   0.803519
   93        6.430081   0.507666
   94        6.490566   0.263183
   95        6.537981   0.113645
   96        6.597549   0.003067
   97        6.631610  -0.024980
   98        6.675857  -0.035454
   99        6.736445  -0.026626
  100        6.818050  -0.009934
  101        6.897205  -0.002426
  102        7.035180  -0.000085
  103        7.100071  -0.000012
  104        7.258559  -0.000000
  105        7.348125  -0.000000
  106        7.394109  -0.000000
  107        7.591278  -0.000000
  108        7.677337  -0.000000
  109        7.826389  -0.000000
  110        7.839190  -0.000000
  111        7.963609  -0.000000
  112        7.991374  -0.000000
 
  0.4285714E+00  0.1428571E+00 -0.2081668E-16  0.5830904E-02
    1      -47.740896   1.000000
    2      -47.668188   1.000000
    3      -47.532977   1.000000
    4      -47.432783   1.000000
    5      -47.346994   1.000000
    6      -24.111618   1.000000
    7      -23.958328   1.000000
    8      -23.949976   1.000000
    9      -23.893259   1.000000
   10      -23.867320   1.000000
   11      -23.850275   1.000000
   12      -23.827350   1.000000
   13      -23.722314   1.000000
   14      -23.628239   1.000000
   15      -23.622465   1.000000
   16      -23.558402   1.000000
   17      -23.545438   1.000000
   18      -23.522770   1.000000
   19      -23.516260   1.000000
   20      -23.306398   1.000000
   21        0.793778   1.000000
   22        1.677463   1.000000
   23        2.057282   1.000000
   24        2.198060   1.000000
   25        2.394259   1.000000
   26        2.469363   1.000000
   27        2.798688   1.000000
   28        2.986083   1.000000
   29        3.067354   1.000000
   30        3.098694   1.000000
   31        3.157254   1.000000
   32        3.171206   1.000000
   33        3.252920   1.000000
   34        3.318329   1.000000
   35        3.407769   1.000000
   36        3.444826   1.000000
   37        3.476446   1.000000
   38        3.611357   1.000000
   39        3.654393   1.000000
   40        3.694129   1.000000
   41        3.734412   1.000000
   42        3.797581   1.000000
   43        3.850629   1.000000
   44        3.905203   1.000000
   45        3.961600   1.000000
   46        4.002928   1.000000
   47        4.051586   1.000000
   48        4.164493   1.000000
   49        4.215237   1.000000
   50        4.264350   1.000000
   51        4.340862   1.000000
   52        4.410137   1.000000
   53        4.471884   1.000000
   54        4.581425   1.000000
   55        4.614513   1.000000
   56        4.663232   1.000000
   57        4.707715   1.000000
   58        4.755122   1.000000
   59        4.810843   1.000000
   60        4.848330   1.000000
   61        4.898629   1.000000
   62        4.937712   1.000000
   63        4.977975   1.000000
   64        5.018669   1.000000
   65        5.063786   1.000000
   66        5.117532   1.000000
   67        5.171970   1.000000
   68        5.235572   1.000000
   69        5.299673   1.000000
   70        5.311588   1.000000
   71        5.362735   1.000000
   72        5.422412   1.000000
   73        5.446735   1.000000
   74        5.463707   1.000000
   75        5.551050   1.000000
   76        5.592943   1.000000
   77        5.643234   1.000000
   78        5.692561   1.000001
   79        5.725680   1.000004
   80        5.814204   1.000056
   81        5.830601   1.000090
   82        5.839014   1.000114
   83        5.865473   1.000232
   84        5.912357   1.000740
   85        5.952468   1.001811
   86        6.010726   1.005595
   87        6.045594   1.009912
   88        6.062601   1.012710
   89        6.106506   1.021825
   90        6.128838   1.026965
   91        6.166578   1.034072
   92        6.220826   1.029958
   93        6.249189   1.013669
   94        6.284289   0.972451
   95        6.398688   0.638377
   96        6.467372   0.352463
   97        6.571167   0.041400
   98        6.592547   0.009121
   99        6.715051  -0.031181
  100        6.797522  -0.013373
  101        6.863401  -0.004651
  102        6.960792  -0.000593
  103        7.051148  -0.000054