 running on   64 total cores
 distrk:  each k-point on   64 cores,    1 groups
 distr:  one band on    8 cores,    8 groups
 using from now: INCAR     
 vasp.5.4.4.18Apr17-6-g9f103f2a35 (build Aug 09 2018 16:20:53) complex          
  
 POSCAR found :  5 types and      29 ions
 scaLAPACK will be used

 ----------------------------------------------------------------------------- 
|                                                                             |
|  ADVICE TO THIS USER RUNNING 'VASP/VAMP'   (HEAR YOUR MASTER'S VOICE ...):  |
|                                                                             |
|      You enforced a specific xc-type in the INCAR file,                     |
|      a different type was found on the POTCAR file                          |
|          I HOPE YOU KNOW, WHAT YOU ARE  DOING                               |
|                                                                             |
 ----------------------------------------------------------------------------- 

 LDA part: xc-table for Pade appr. of Perdew
 POSCAR found :  5 types and      29 ions
 POSCAR, INCAR and KPOINTS ok, starting setup
 FFT: planning ...
 WAVECAR not read
 WARNING: random wavefunctions but no delay for mixing, default for NELMDL
 entering main loop
       N       E                     dE             d eps       ncg     rms          rms(c)
DAV:   1     0.233110828676E+04    0.23311E+04   -0.76536E+04 38528   0.184E+03
DAV:   2     0.242382695496E+03   -0.20887E+04   -0.20413E+04 43672   0.501E+02
DAV:   3    -0.249502273540E+03   -0.49188E+03   -0.47172E+03 67400   0.220E+02
DAV:   4    -0.326472333247E+03   -0.76970E+02   -0.70897E+02 66904   0.998E+01
DAV:   5    -0.336988565638E+03   -0.10516E+02   -0.10020E+02 75064   0.355E+01    0.703E+01
DAV:   6    -0.393872364955E+03   -0.56884E+02   -0.72909E+02 71896   0.102E+02    0.104E+02
DAV:   7    -0.304968833395E+03    0.88904E+02   -0.11522E+03 75336   0.177E+02    0.362E+01
DAV:   8    -0.328748124325E+03   -0.23779E+02   -0.42929E+02 63704   0.608E+01    0.292E+01
DAV:   9    -0.313347268376E+03    0.15401E+02   -0.11191E+02 66608   0.423E+01    0.230E+01
DAV:  10    -0.308618247752E+03    0.47290E+01   -0.47415E+01 63504   0.353E+01    0.168E+01
DAV:  11    -0.306327368654E+03    0.22909E+01   -0.10190E+01 66520   0.122E+01    0.131E+01
DAV:  12    -0.305772010044E+03    0.55536E+00   -0.49626E+00 66816   0.869E+00    0.114E+01
DAV:  13    -0.305448085993E+03    0.32392E+00   -0.21366E+00 65408   0.647E+00    0.100E+01
DAV:  14    -0.305206620591E+03    0.24147E+00   -0.10902E+00 67232   0.417E+00    0.847E+00
DAV:  15    -0.305234114718E+03   -0.27494E-01   -0.15101E+00 63424   0.544E+00    0.765E+00
DAV:  16    -0.305145698614E+03    0.88416E-01   -0.24234E+00 64008   0.704E+00    0.598E+00
DAV:  17    -0.305207725055E+03   -0.62026E-01   -0.23922E+00 64648   0.655E+00    0.554E+00
DAV:  18    -0.305022309820E+03    0.18542E+00   -0.22694E+00 62712   0.665E+00    0.339E+00
DAV:  19    -0.304948646852E+03    0.73663E-01   -0.76846E-01 66168   0.334E+00    0.206E+00
DAV:  20    -0.304930872439E+03    0.17774E-01   -0.28174E-01 64464   0.210E+00    0.158E+00
DAV:  21    -0.304925962352E+03    0.49101E-02   -0.13716E-01 61752   0.162E+00    0.106E+00
DAV:  22    -0.304918470706E+03    0.74916E-02   -0.45323E-02 62448   0.909E-01    0.505E-01
DAV:  23    -0.304917434696E+03    0.10360E-02   -0.23877E-02 63216   0.489E-01    0.357E-01
DAV:  24    -0.304916481663E+03    0.95303E-03   -0.11983E-02 61880   0.349E-01    0.197E-01
DAV:  25    -0.304916310054E+03    0.17161E-03   -0.33675E-03 62600   0.229E-01    0.986E-02
DAV:  26    -0.304916229196E+03    0.80858E-04   -0.14068E-03 54312   0.142E-01    0.716E-02
DAV:  27    -0.304916179822E+03    0.49374E-04   -0.60018E-04 41656   0.852E-02
   1 F= -.30491618E+03 E0= -.30490892E+03  d E =-.304916E+03
 curvature:   0.00 expect dE= 0.000E+00 dE for cont linesearch  0.000E+00
 trial: gam= 0.00000 g(F)=  0.725E+00 g(S)=  0.190E+00 ort = 0.000E+00 (trialstep = 0.100E+01)
 search vector abs. value=  0.916E+00
 bond charge predicted
       N       E                     dE             d eps       ncg     rms          rms(c)
DAV:   1    -0.305715253600E+03   -0.79902E+00   -0.94994E+01 38584   0.393E+01    0.908E+00
DAV:   2    -0.307206506616E+03   -0.14913E+01   -0.17973E+01 69360   0.242E+01    0.101E+01
DAV:   3    -0.306125309938E+03    0.10812E+01   -0.13388E+01 69192   0.163E+01    0.713E+00
DAV:   4    -0.306144353516E+03   -0.19044E-01   -0.88067E+00 64656   0.147E+01    0.740E+00
DAV:   5    -0.305548546572E+03    0.59581E+00   -0.48506E+00 67400   0.108E+01    0.282E+00
DAV:   6    -0.305521223222E+03    0.27323E-01   -0.14406E+00 68168   0.519E+00    0.258E+00
DAV:   7    -0.305491990219E+03    0.29233E-01   -0.10029E+00 70096   0.438E+00    0.229E+00
DAV:   8    -0.305474150753E+03    0.17839E-01   -0.55699E-01 67144   0.332E+00    0.170E+00
DAV:   9    -0.305454009394E+03    0.20141E-01   -0.19570E-01 68120   0.187E+00    0.903E-01
DAV:  10    -0.305451564501E+03    0.24449E-02   -0.78053E-02 68176   0.118E+00    0.768E-01
DAV:  11    -0.305453697338E+03   -0.21328E-02   -0.50859E-02 62088   0.103E+00    0.734E-01
DAV:  12    -0.305453576223E+03    0.12112E-03   -0.33083E-02 65680   0.812E-01    0.451E-01
DAV:  13    -0.305455584658E+03   -0.20084E-02   -0.33692E-02 61944   0.864E-01    0.532E-01
DAV:  14    -0.305453624195E+03    0.19605E-02   -0.22943E-02 65672   0.709E-01    0.167E-01
DAV:  15    -0.305453750607E+03   -0.12641E-03   -0.63516E-03 62928   0.356E-01    0.191E-01
DAV:  16    -0.305453500203E+03    0.25040E-03   -0.36109E-03 57168   0.287E-01    0.103E-01
DAV:  17    -0.305453429345E+03    0.70857E-04   -0.76046E-04 43680   0.140E-01
   2 F= -.30545343E+03 E0= -.30544677E+03  d E =-.537250E+00
 trial-energy change:   -0.537250  1 .order   -0.528892   -0.915502   -0.142282
 step:   1.1710(harm=  1.1840)  dis= 0.04366  next Energy=  -305.465638 (dE=-0.549E+00)
 bond charge predicted
       N       E                     dE             d eps       ncg     rms          rms(c)
DAV:   1    -0.305469948493E+03   -0.16448E-01   -0.28115E+00 39072   0.682E+00    0.156E+00
DAV:   2    -0.305514491627E+03   -0.44543E-01   -0.52129E-01 68256   0.408E+00    0.182E+00
DAV:   3    -0.305483485543E+03    0.31006E-01   -0.41251E-01 69128   0.303E+00    0.117E+00
DAV:   4    -0.305485260586E+03   -0.17750E-02   -0.23491E-01 66088   0.232E+00    0.126E+00
DAV:   5    -0.305467586607E+03    0.17674E-01   -0.13710E-01 66592   0.176E+00    0.501E-01
DAV:   6    -0.305466477732E+03    0.11089E-02   -0.42621E-02 68680   0.897E-01    0.439E-01
DAV:   7    -0.305466000979E+03    0.47675E-03   -0.29731E-02 66384   0.771E-01    0.416E-01
DAV:   8    -0.305465131234E+03    0.86975E-03   -0.15758E-02 57784   0.552E-01    0.270E-01
DAV:   9    -0.305464697715E+03    0.43352E-03   -0.53806E-03 60168   0.324E-01    0.165E-01
DAV:  10    -0.305464603808E+03    0.93908E-04   -0.22211E-03 58392   0.212E-01    0.131E-01
DAV:  11    -0.305464706924E+03   -0.10312E-03   -0.16892E-03 50880   0.199E-01    0.136E-01
DAV:  12    -0.305464703026E+03    0.38982E-05   -0.11317E-03 45584   0.176E-01    0.853E-02
DAV:  13    -0.305464723955E+03   -0.20929E-04   -0.10884E-03 46056   0.177E-01    0.804E-02
DAV:  14    -0.305464683790E+03    0.40165E-04   -0.57982E-04 36712   0.135E-01
   3 F= -.30546468E+03 E0= -.30545816E+03  d E =-.548504E+00
 curvature:  -0.59 expect dE=-0.675E+00 dE for cont linesearch -0.519E-06
 trial: gam= 1.25134 g(F)=  0.308E+00 g(S)=  0.838E+00 ort = 0.898E-03 (trialstep = 0.367E+00)
 search vector abs. value=  0.258E+01
 bond charge predicted
       N       E                     dE             d eps       ncg     rms          rms(c)
DAV:   1    -0.305697181572E+03   -0.23246E+00   -0.33417E+01 38528   0.210E+01    0.327E+00
DAV:   2    -0.306221485699E+03   -0.52430E+00   -0.51199E+00 67176   0.114E+01    0.562E+00
DAV:   3    -0.305869135907E+03    0.35235E+00   -0.31224E+00 68752   0.816E+00    0.261E+00
DAV:   4    -0.305882321234E+03   -0.13185E-01   -0.10430E+00 65976   0.501E+00    0.263E+00
DAV:   5    -0.305807346678E+03    0.74975E-01   -0.56060E-01 63656   0.378E+00    0.103E+00
DAV:   6    -0.305810245825E+03   -0.28991E-02   -0.24815E-01 63728   0.234E+00    0.137E+00
DAV:   7    -0.305802477959E+03    0.77679E-02   -0.21267E-01 64040   0.205E+00    0.101E+00
DAV:   8    -0.305794336728E+03    0.81412E-02   -0.76132E-02 69528   0.124E+00    0.438E-01
DAV:   9    -0.305792799744E+03    0.15370E-02   -0.22622E-02 67280   0.584E-01    0.315E-01
DAV:  10    -0.305792402128E+03    0.39762E-03   -0.99260E-03 61280   0.441E-01    0.260E-01
DAV:  11    -0.305792309036E+03    0.93092E-04   -0.46734E-03 56696   0.310E-01    0.198E-01
DAV:  12    -0.305792404917E+03   -0.95882E-04   -0.27907E-03 60040   0.229E-01    0.164E-01
DAV:  13    -0.305792634630E+03   -0.22971E-03   -0.38366E-03 55408   0.308E-01    0.194E-01
DAV:  14    -0.305792377089E+03    0.25754E-03   -0.30057E-03 56528   0.276E-01    0.821E-02
DAV:  15    -0.305792363170E+03    0.13919E-04   -0.12999E-03 52640   0.175E-01    0.800E-02
DAV:  16    -0.305792293513E+03    0.69657E-04   -0.47973E-04 35704   0.140E-01
   4 F= -.30579229E+03 E0= -.30578676E+03  d E =-.327610E+00
 trial-energy change:   -0.327610  1 .order   -0.327162   -0.420785   -0.233539
 step:   0.8240(harm=  0.8240)  dis= 0.06609  next Energy=  -305.937485 (dE=-0.473E+00)
 bond charge predicted
       N       E                     dE             d eps       ncg     rms          rms(c)
DAV:   1    -0.305792769501E+03   -0.40633E-03   -0.51966E+01 38528   0.262E+01    0.398E+00
DAV:   2    -0.306589534688E+03   -0.79677E+00   -0.78516E+00 67352   0.142E+01    0.684E+00
DAV:   3    -0.306047042376E+03    0.54249E+00   -0.46615E+00 68984   0.991E+00    0.306E+00
DAV:   4    -0.306082581130E+03   -0.35539E-01   -0.15970E+00 64496   0.628E+00    0.334E+00
DAV:   5    -0.305959609920E+03    0.12297E+00   -0.85364E-01 62816   0.468E+00    0.111E+00
DAV:   6    -0.305963983477E+03   -0.43736E-02   -0.31212E-01 64632   0.260E+00    0.149E+00
DAV:   7    -0.305956104644E+03    0.78788E-02   -0.28098E-01 64120   0.238E+00    0.122E+00
DAV:   8    -0.305944941297E+03    0.11163E-01   -0.11246E-01 69016   0.154E+00    0.533E-01
DAV:   9    -0.305942360437E+03    0.25809E-02   -0.29045E-02 68504   0.630E-01    0.336E-01
DAV:  10    -0.305942108347E+03    0.25209E-03   -0.12983E-02 65552   0.462E-01    0.302E-01
DAV:  11    -0.305942166720E+03   -0.58373E-04   -0.77912E-03 56096   0.405E-01    0.257E-01
DAV:  12    -0.305942113133E+03    0.53587E-04   -0.50188E-03 60576   0.320E-01    0.173E-01
DAV:  13    -0.305942458095E+03   -0.34496E-03   -0.49061E-03 63512   0.320E-01    0.216E-01
DAV:  14    -0.305942161147E+03    0.29695E-03   -0.43860E-03 56320   0.332E-01    0.118E-01
DAV:  15    -0.305942057127E+03    0.10402E-03   -0.15763E-03 55568   0.184E-01    0.663E-02
DAV:  16    -0.305941995444E+03    0.61683E-04   -0.37701E-04 32568   0.123E-01
   5 F= -.30594200E+03 E0= -.30593828E+03  d E =-.477312E+00
 curvature:  -0.93 expect dE=-0.178E+00 dE for cont linesearch -0.107E-03
 trial: gam= 0.04909 g(F)=  0.184E+00 g(S)=  0.784E-02 ort = 0.172E-01 (trialstep = 0.458E+00)
 search vector abs. value=  0.200E+00
 bond charge predicted
       N       E                     dE             d eps       ncg     rms          rms(c)
DAV:   1    -0.305998520382E+03   -0.56463E-01   -0.44343E+00 38528   0.726E+00    0.898E-01
DAV:   2    -0.306062581954E+03   -0.64062E-01   -0.57878E-01 65464   0.420E+00    0.207E+00
DAV:   3    -0.306024344914E+03    0.38237E-01   -0.32298E-01 62736   0.284E+00    0.735E-01
DAV:   4    -0.306021852135E+03    0.24928E-02   -0.57847E-02 65144   0.109E+00    0.459E-01
DAV:   5    -0.306019849150E+03    0.20030E-02   -0.30080E-02 65248   0.784E-01    0.370E-01
DAV:   6    -0.306019723024E+03    0.12613E-03   -0.19418E-02 66088   0.653E-01    0.325E-01
DAV:   7    -0.306019239033E+03    0.48399E-03   -0.12786E-02 66328   0.525E-01    0.263E-01
DAV:   8    -0.306018673621E+03    0.56541E-03   -0.86505E-03 59400   0.411E-01    0.176E-01
DAV:   9    -0.306018419816E+03    0.25381E-03   -0.27337E-03 58240   0.243E-01    0.945E-02
DAV:  10    -0.306018356401E+03    0.63414E-04   -0.78852E-04 43224   0.135E-01
   6 F= -.30601836E+03 E0= -.30601454E+03  d E =-.763610E-01
 trial-energy change:   -0.076361  1 .order   -0.076194   -0.088431   -0.063957
 step:   1.6553(harm=  1.6553)  dis= 0.04092  next Energy=  -306.101759 (dE=-0.160E+00)
 bond charge predicted
       N       E                     dE             d eps       ncg     rms          rms(c)
DAV:   1    -0.305969385440E+03    0.49034E-01   -0.30312E+01 38528   0.191E+01    0.232E+00
DAV:   2    -0.306397432153E+03   -0.42805E+00   -0.38910E+00 65152   0.108E+01    0.524E+00
DAV:   3    -0.306143910467E+03    0.25352E+00   -0.20803E+00 62872   0.715E+00    0.186E+00
DAV:   4    -0.306130122466E+03    0.13788E-01   -0.39448E-01 65384   0.284E+00    0.121E+00
DAV:   5    -0.306117935548E+03    0.12187E-01   -0.20813E-01 65784   0.202E+00    0.106E+00
DAV:   6    -0.306115804706E+03    0.21308E-02   -0.14258E-01 69096   0.176E+00    0.891E-01
DAV:   7    -0.306110653155E+03    0.51516E-02   -0.82198E-02 66520   0.130E+00    0.575E-01
DAV:   8    -0.306107889236E+03    0.27639E-02   -0.47655E-02 68128   0.962E-01    0.423E-01
DAV:   9    -0.306106389621E+03    0.14996E-02   -0.16107E-02 61296   0.584E-01    0.223E-01
DAV:  10    -0.306106149047E+03    0.24057E-03   -0.57412E-03 59912   0.316E-01    0.157E-01
DAV:  11    -0.306106128478E+03    0.20569E-04   -0.21106E-03 56224   0.214E-01    0.128E-01
DAV:  12    -0.306106122298E+03    0.61803E-05   -0.13479E-03 50800   0.189E-01    0.103E-01
DAV:  13    -0.306106154770E+03   -0.32472E-04   -0.15250E-03 51472   0.190E-01    0.103E-01
DAV:  14    -0.306106124829E+03    0.29941E-04   -0.13229E-03 48824   0.197E-01    0.815E-02
DAV:  15    -0.306106055594E+03    0.69235E-04   -0.48096E-04 36816   0.128E-01
   7 F= -.30610606E+03 E0= -.30610205E+03  d E =-.164060E+00
 curvature:  -0.86 expect dE=-0.147E+00 dE for cont linesearch -0.179E-03
 trial: gam= 0.85832 g(F)=  0.403E-01 g(S)=  0.131E+00 ort = 0.646E-02 (trialstep = 0.424E+00)
 search vector abs. value=  0.330E+00
 bond charge predicted
       N       E                     dE             d eps       ncg     rms          rms(c)
DAV:   1    -0.306196559338E+03   -0.90435E-01   -0.59252E+00 43448   0.106E+01    0.246E+00
DAV:   2    -0.306266623491E+03   -0.70064E-01   -0.12379E+00 69264   0.596E+00    0.283E+00
DAV:   3    -0.306224436979E+03    0.42187E-01   -0.12590E+00 68216   0.544E+00    0.240E+00
DAV:   4    -0.306190538532E+03    0.33898E-01   -0.63476E-01 64080   0.373E+00    0.155E+00
DAV:   5    -0.306163792839E+03    0.26746E-01   -0.28869E-01 66704   0.206E+00    0.805E-01
DAV:   6    -0.306160688090E+03    0.31047E-02   -0.12072E-01 66256   0.164E+00    0.768E-01
DAV:   7    -0.306157802347E+03    0.28857E-02   -0.69999E-02 70064   0.124E+00    0.540E-01
DAV:   8    -0.306155906707E+03    0.18956E-02   -0.27408E-02 65048   0.738E-01    0.319E-01
DAV:   9    -0.306155591047E+03    0.31566E-03   -0.10812E-02 59584   0.484E-01    0.257E-01
DAV:  10    -0.306155206561E+03    0.38449E-03   -0.37777E-03 58976   0.271E-01    0.154E-01
DAV:  11    -0.306155521849E+03   -0.31529E-03   -0.20308E-03 57128   0.205E-01    0.161E-01
DAV:  12    -0.306155606496E+03   -0.84647E-04   -0.24667E-03 58136   0.242E-01    0.964E-02
DAV:  13    -0.306155649990E+03   -0.43494E-04   -0.16400E-03 61520   0.176E-01    0.762E-02
DAV:  14    -0.306155631663E+03    0.18327E-04   -0.94606E-04 47696   0.155E-01
   8 F= -.30615563E+03 E0= -.30615170E+03  d E =-.495761E-01
 trial-energy change:   -0.049576  1 .order   -0.049385   -0.074799   -0.023970
 step:   0.6233(harm=  0.6233)  dis= 0.02179  next Energy=  -306.161092 (dE=-0.550E-01)
 bond charge predicted
       N       E                     dE             d eps       ncg     rms          rms(c)
DAV:   1    -0.306169628555E+03   -0.13979E-01   -0.13215E+00 44248   0.501E+00    0.115E+00
DAV:   2    -0.306185866027E+03   -0.16237E-01   -0.27786E-01 69168   0.282E+00    0.137E+00
DAV:   3    -0.306175160978E+03    0.10705E-01   -0.28096E-01 67552   0.259E+00    0.109E+00
DAV:   4    -0.306168214205E+03    0.69468E-02   -0.13291E-01 64624   0.169E+00    0.710E-01
DAV:   5    -0.306162610936E+03    0.56033E-02   -0.63274E-02 66608   0.965E-01    0.380E-01
DAV:   6    -0.306161778392E+03    0.83254E-03   -0.25835E-02 66656   0.755E-01    0.345E-01
DAV:   7    -0.306161221504E+03    0.55689E-03   -0.14490E-02 65632   0.564E-01    0.246E-01
DAV:   8    -0.306160850649E+03    0.37086E-03   -0.55581E-03 60024   0.340E-01    0.147E-01
DAV:   9    -0.306160790227E+03    0.60421E-04   -0.21396E-03 57576   0.221E-01    0.119E-01
DAV:  10    -0.306160706909E+03    0.83319E-04   -0.61428E-04 39024   0.125E-01
   9 F= -.30616071E+03 E0= -.30615684E+03  d E =-.546513E-01
 curvature:  -0.58 expect dE=-0.398E-01 dE for cont linesearch -0.346E-07
 trial: gam= 0.42486 g(F)=  0.524E-01 g(S)=  0.159E-01 ort =-0.140E-03 (trialstep = 0.463E+00)
 search vector abs. value=  0.128E+00
 bond charge predicted
       N       E                     dE             d eps       ncg     rms          rms(c)
DAV:   1    -0.306177504138E+03   -0.16714E-01   -0.22761E+00 38760   0.507E+00    0.493E-01
DAV:   2    -0.306213296161E+03   -0.35792E-01   -0.27597E-01 66032   0.308E+00    0.142E+00
DAV:   3    -0.306190481210E+03    0.22815E-01   -0.14025E-01 65320   0.205E+00    0.335E-01
DAV:   4    -0.306190447238E+03    0.33972E-04   -0.18948E-02 62984   0.644E-01    0.307E-01
DAV:   5    -0.306189436703E+03    0.10105E-02   -0.83996E-03 63392   0.403E-01    0.180E-01
DAV:   6    -0.306189650396E+03   -0.21369E-03   -0.54410E-03 55912   0.352E-01    0.241E-01
DAV:   7    -0.306189255697E+03    0.39470E-03   -0.41814E-03 60480   0.295E-01    0.127E-01
DAV:   8    -0.306189228525E+03    0.27172E-04   -0.24929E-03 59368   0.233E-01    0.128E-01
DAV:   9    -0.306189040736E+03    0.18779E-03   -0.11755E-03 48088   0.174E-01    0.432E-02
DAV:  10    -0.306189031196E+03    0.95402E-05   -0.23762E-04 28368   0.908E-02
  10 F= -.30618903E+03 E0= -.30618532E+03  d E =-.283243E-01
 ZBRENT: can't locate minimum, use default step
 trial-energy change:   -0.028324  1 .order   -0.028151   -0.031658   -0.024645
 step:   1.8539(harm=  2.0923)  dis= 0.05897  next Energy=  -306.232165 (dE=-0.715E-01)
 bond charge predicted
       N       E                     dE             d eps       ncg     rms          rms(c)
DAV:   1    -0.306123451822E+03    0.65589E-01   -0.20459E+01 38656   0.152E+01    0.153E+00
DAV:   2    -0.306412652216E+03   -0.28920E+00   -0.23355E+00 66160   0.885E+00    0.386E+00
DAV:   3    -0.306246796520E+03    0.16586E+00   -0.11385E+00 64560   0.581E+00    0.109E+00
DAV:   4    -0.306243993361E+03    0.28032E-02   -0.17344E-01 63272   0.198E+00    0.884E-01
DAV:   5    -0.306235702433E+03    0.82909E-02   -0.73178E-02 66912   0.116E+00    0.554E-01
DAV:   6    -0.306236465675E+03   -0.76324E-03   -0.42257E-02 64864   0.983E-01    0.639E-01
DAV:   7    -0.306233669022E+03    0.27967E-02   -0.30857E-02 63848   0.786E-01    0.346E-01
DAV:   8    -0.306232964481E+03    0.70454E-03   -0.16269E-02 67088   0.560E-01    0.321E-01
DAV:   9    -0.306231992158E+03    0.97232E-03   -0.93508E-03 66608   0.458E-01    0.155E-01
DAV:  10    -0.306231882776E+03    0.10938E-03   -0.34765E-03 61128   0.251E-01    0.110E-01
DAV:  11    -0.306231835199E+03    0.47577E-04   -0.16111E-03 53064   0.180E-01    0.899E-02
DAV:  12    -0.306231758002E+03    0.77196E-04   -0.65633E-04 42184   0.145E-01
  11 F= -.30623176E+03 E0= -.30622862E+03  d E =-.710511E-01
 curvature:  -1.91 expect dE=-0.490E-01 dE for cont linesearch -0.849E-03
 trial: gam= 0.08510 g(F)=  0.170E-01 g(S)=  0.862E-02 ort = 0.752E-02 (trialstep = 0.742E+00)
 search vector abs. value=  0.278E-01
 bond charge predicted
       N       E                     dE             d eps       ncg     rms          rms(c)
DAV:   1    -0.306252962556E+03   -0.21127E-01   -0.16733E+00 48184   0.573E+00    0.128E+00
DAV:   2    -0.306261396580E+03   -0.84340E-02   -0.31180E-01 69296   0.264E+00    0.110E+00
DAV:   3    -0.306261541386E+03   -0.14481E-03   -0.31399E-01 67520   0.229E+00    0.120E+00
DAV:   4    -0.306249254048E+03    0.12287E-01   -0.13451E-01 63456   0.182E+00    0.609E-01
DAV:   5    -0.306245202933E+03    0.40511E-02   -0.54155E-02 70128   0.107E+00    0.450E-01
DAV:   6    -0.306244160976E+03    0.10420E-02   -0.33307E-02 65824   0.876E-01    0.364E-01
DAV:   7    -0.306243133300E+03    0.10277E-02   -0.14846E-02 65064   0.579E-01    0.197E-01
DAV:   8    -0.306243009091E+03    0.12421E-03   -0.56997E-03 62952   0.334E-01    0.158E-01
DAV:   9    -0.306242852312E+03    0.15678E-03   -0.16687E-03 54560   0.214E-01    0.102E-01
DAV:  10    -0.306242802398E+03    0.49914E-04   -0.21599E-04 25160   0.986E-02
  12 F= -.30624280E+03 E0= -.30623980E+03  d E =-.110444E-01
 trial-energy change:   -0.011044  1 .order   -0.011505   -0.019440   -0.003571
 step:   0.9569(harm=  0.9085)  dis= 0.01079  next Energy=  -306.243310 (dE=-0.116E-01)
 bond charge predicted
       N       E                     dE             d eps       ncg     rms          rms(c)
DAV:   1    -0.306243722448E+03   -0.87014E-03   -0.14211E-01 49080   0.166E+00    0.356E-01
DAV:   2    -0.306244727740E+03   -0.10053E-02   -0.25911E-02 68608   0.800E-01    0.343E-01
DAV:   3    -0.306244548693E+03    0.17905E-03   -0.26756E-02 66976   0.719E-01    0.358E-01
DAV:   4    -0.306243677498E+03    0.87120E-03   -0.11163E-02 58280   0.520E-01    0.203E-01
DAV:   5    -0.306243342699E+03    0.33480E-03   -0.54361E-03 61968   0.348E-01    0.159E-01
DAV:   6    -0.306243171637E+03    0.17106E-03   -0.32023E-03 56224   0.286E-01    0.104E-01
DAV:   7    -0.306243133386E+03    0.38251E-04   -0.14387E-03 56264   0.175E-01    0.782E-02
DAV:   8    -0.306243075357E+03    0.58029E-04   -0.27627E-04 28360   0.117E-01
  13 F= -.30624308E+03 E0= -.30624012E+03  d E =-.113174E-01
 curvature:  -0.44 expect dE=-0.148E-01 dE for cont linesearch -0.637E-04
 trial: gam= 1.41478 g(F)=  0.816E-02 g(S)=  0.253E-01 ort =-0.200E-02 (trialstep = 0.261E+00)
 search vector abs. value=  0.834E-01
 bond charge predicted
       N       E                     dE             d eps       ncg     rms          rms(c)
DAV:   1    -0.306247423339E+03   -0.42900E-02   -0.55271E-01 39808   0.257E+00    0.250E-01
DAV:   2    -0.306252537685E+03   -0.51143E-02   -0.54863E-02 64880   0.126E+00    0.423E-01
DAV:   3    -0.306250896232E+03    0.16415E-02   -0.21569E-02 65896   0.723E-01    0.221E-01
DAV:   4    -0.306250685876E+03    0.21036E-03   -0.58928E-03 57216   0.374E-01    0.185E-01
DAV:   5    -0.306250420869E+03    0.26501E-03   -0.27210E-03 55680   0.255E-01    0.120E-01
DAV:   6    -0.306250415045E+03    0.58239E-05   -0.18738E-03 53976   0.204E-01    0.118E-01
DAV:   7    -0.306250369772E+03    0.45273E-04   -0.17442E-03 53520   0.209E-01    0.916E-02
DAV:   8    -0.306250295580E+03    0.74192E-04   -0.99092E-04 45744   0.171E-01
  14 F= -.30625030E+03 E0= -.30624742E+03  d E =-.722022E-02
 ZBRENT: can't locate minimum, use default step
 trial-energy change:   -0.007220  1 .order   -0.007300   -0.008007   -0.006592
 step:   1.0452(harm=  1.4788)  dis= 0.02299  next Energy=  -306.265732 (dE=-0.227E-01)
 bond charge predicted
       N       E                     dE             d eps       ncg     rms          rms(c)
DAV:   1    -0.306235347766E+03    0.15022E-01   -0.49639E+00 39880   0.769E+00    0.735E-01
DAV:   2    -0.306279398932E+03   -0.44051E-01   -0.47308E-01 64392   0.369E+00    0.119E+00
DAV:   3    -0.306267068990E+03    0.12330E-01   -0.17463E-01 65552   0.209E+00    0.647E-01
DAV:   4    -0.306265191827E+03    0.18772E-02   -0.51878E-02 64200   0.111E+00    0.516E-01
DAV:   5    -0.306263067282E+03    0.21245E-02   -0.23750E-02 61944   0.737E-01    0.344E-01
DAV:   6    -0.306262848246E+03    0.21904E-03   -0.15599E-02 64776   0.554E-01    0.307E-01
DAV:   7    -0.306262660451E+03    0.18780E-03   -0.12769E-02 61928   0.534E-01    0.260E-01
DAV:   8    -0.306261968528E+03    0.69192E-03   -0.75728E-03 64480   0.416E-01    0.146E-01
DAV:   9    -0.306261752626E+03    0.21590E-03   -0.22596E-03 58792   0.231E-01    0.770E-02
DAV:  10    -0.306261697416E+03    0.55210E-04   -0.57632E-04 37352   0.133E-01
  15 F= -.30626170E+03 E0= -.30625918E+03  d E =-.186221E-01
 curvature:  -1.76 expect dE=-0.211E-01 dE for cont linesearch -0.445E-03
 trial: gam=-0.03028 g(F)=  0.655E-02 g(S)=  0.548E-02 ort = 0.459E-02 (trialstep = 0.418E+00)
 search vector abs. value=  0.118E-01
 bond charge predicted
       N       E                     dE             d eps       ncg     rms          rms(c)
DAV:   1    -0.306268198839E+03   -0.64462E-02   -0.25486E-01 52536   0.234E+00    0.540E-01
DAV:   2    -0.306270497790E+03   -0.22990E-02   -0.63011E-02 70608   0.121E+00    0.589E-01
DAV:   3    -0.306268547997E+03    0.19498E-02   -0.65385E-02 66064   0.116E+00    0.502E-01
DAV:   4    -0.306266781993E+03    0.17660E-02   -0.26390E-02 56368   0.802E-01    0.319E-01
DAV:   5    -0.306266099272E+03    0.68272E-03   -0.14170E-02 64744   0.523E-01    0.238E-01
DAV:   6    -0.306265635793E+03    0.46348E-03   -0.63090E-03 61056   0.401E-01    0.134E-01
DAV:   7    -0.306265519229E+03    0.11656E-03   -0.26021E-03 62312   0.240E-01    0.107E-01
DAV:   8    -0.306265457407E+03    0.61822E-04   -0.14385E-03 53152   0.184E-01    0.720E-02
DAV:   9    -0.306265423407E+03    0.34000E-04   -0.23674E-04 26616   0.110E-01
  16 F= -.30626542E+03 E0= -.30626293E+03  d E =-.372599E-02
 trial-energy change:   -0.003726  1 .order   -0.003658   -0.004973   -0.002344
 step:   0.7909(harm=  0.7909)  dis= 0.00312  next Energy=  -306.266401 (dE=-0.470E-02)
 bond charge predicted
       N       E                     dE             d eps       ncg     rms          rms(c)
DAV:   1    -0.306268381798E+03   -0.29244E-02   -0.20119E-01 51896   0.207E+00    0.477E-01
DAV:   2    -0.306269607091E+03   -0.12253E-02   -0.43860E-02 70168   0.102E+00    0.476E-01
DAV:   3    -0.306268799026E+03    0.80806E-03   -0.46539E-02 66656   0.983E-01    0.454E-01
DAV:   4    -0.306267359150E+03    0.14399E-02   -0.21315E-02 56784   0.723E-01    0.281E-01
DAV:   5    -0.306266733135E+03    0.62601E-03   -0.10424E-02 63944   0.449E-01    0.195E-01
DAV:   6    -0.306266433536E+03    0.29960E-03   -0.47985E-03 59504   0.354E-01    0.114E-01
DAV:   7    -0.306266332479E+03    0.10106E-03   -0.15126E-03 57352   0.187E-01    0.734E-02
DAV:   8    -0.306266308854E+03    0.23624E-04   -0.65550E-04 39592   0.138E-01
  17 F= -.30626631E+03 E0= -.30626384E+03  d E =-.461144E-02
 curvature:  -0.39 expect dE=-0.360E-02 dE for cont linesearch -0.214E-04
 trial: gam= 0.81443 g(F)=  0.363E-02 g(S)=  0.552E-02 ort =-0.803E-03 (trialstep = 0.371E+00)
 search vector abs. value=  0.157E-01
 bond charge predicted
       N       E                     dE             d eps       ncg     rms          rms(c)
DAV:   1    -0.306268366643E+03   -0.20342E-02   -0.19631E-01 39008   0.148E+00    0.184E-01
DAV:   2    -0.306271339848E+03   -0.29732E-02   -0.27567E-02 65088   0.894E-01    0.466E-01
DAV:   3    -0.306269289532E+03    0.20503E-02   -0.16181E-02 62472   0.649E-01    0.150E-01
DAV:   4    -0.306269268613E+03    0.20919E-04   -0.26635E-03 58264   0.245E-01    0.131E-01
DAV:   5    -0.306269107983E+03    0.16063E-03   -0.13799E-03 49144   0.190E-01    0.878E-02
DAV:   6    -0.306269087696E+03    0.20287E-04   -0.84528E-04 43976   0.156E-01
  18 F= -.30626909E+03 E0= -.30626663E+03  d E =-.277884E-02
 ZBRENT: can't locate minimum, use default step
 trial-energy change:   -0.002779  1 .order   -0.002809   -0.003157   -0.002461
 step:   1.4856(harm=  1.6850)  dis= 0.00957  next Energy=  -306.273470 (dE=-0.716E-02)
 bond charge predicted
       N       E                     dE             d eps       ncg     rms          rms(c)
DAV:   1    -0.306265687553E+03    0.34204E-02   -0.17609E+00 39392   0.443E+00    0.516E-01
DAV:   2    -0.306288013439E+03   -0.22326E-01   -0.21086E-01 64616   0.246E+00    0.126E+00
DAV:   3    -0.306273359337E+03    0.14654E-01   -0.11544E-01 63048   0.175E+00    0.383E-01
DAV:   4    -0.306273533447E+03   -0.17411E-03   -0.19826E-02 65840   0.663E-01    0.361E-01
DAV:   5    -0.306272152667E+03    0.13808E-02   -0.11953E-02 65400   0.536E-01    0.219E-01
DAV:   6    -0.306272112329E+03    0.40337E-04   -0.75268E-03 62032   0.406E-01    0.209E-01
DAV:   7    -0.306271767534E+03    0.34480E-03   -0.51736E-03 65648   0.329E-01    0.132E-01
DAV:   8    -0.306271659050E+03    0.10848E-03   -0.27090E-03 58752   0.248E-01    0.105E-01
DAV:   9    -0.306271535370E+03    0.12368E-03   -0.96209E-04 45320   0.168E-01    0.521E-02
DAV:  10    -0.306271509324E+03    0.26047E-04   -0.19753E-04 23920   0.101E-01
  19 F= -.30627151E+03 E0= -.30626920E+03  d E =-.520047E-02
 curvature:  -1.52 expect dE=-0.100E-01 dE for cont linesearch -0.226E-03
 trial: gam= 0.73646 g(F)=  0.642E-02 g(S)=  0.160E-03 ort =-0.153E-02 (trialstep = 0.594E+00)
 search vector abs. value=  0.128E-01
 bond charge predicted
       N       E                     dE             d eps       ncg     rms          rms(c)
DAV:   1    -0.306272858458E+03   -0.13231E-02   -0.35864E-01 40048   0.204E+00    0.204E-01
DAV:   2    -0.306278491648E+03   -0.56332E-02   -0.46625E-02 64496   0.123E+00    0.595E-01
DAV:   3    -0.306274749966E+03    0.37417E-02   -0.23646E-02 64496   0.842E-01    0.134E-01
DAV:   4    -0.306274695520E+03    0.54447E-04   -0.26485E-03 56768   0.255E-01    0.124E-01
DAV:   5    -0.306274590626E+03    0.10489E-03   -0.16281E-03 51808   0.209E-01    0.942E-02
DAV:   6    -0.306274532257E+03    0.58369E-04   -0.85989E-04 43544   0.160E-01
  20 F= -.30627453E+03 E0= -.30627227E+03  d E =-.302293E-02
 ZBRENT: can't locate minimum, use default step
 trial-energy change:   -0.003023  1 .order   -0.003173   -0.003243   -0.003102
 step:   2.3769(harm= 13.6411)  dis= 0.01673  next Energy=  -306.308737 (dE=-0.372E-01)
 bond charge predicted
       N       E                     dE             d eps       ncg     rms          rms(c)
DAV:   1    -0.306266100799E+03    0.84898E-02   -0.32171E+00 40008   0.611E+00    0.612E-01
DAV:   2    -0.306316827093E+03   -0.50726E-01   -0.42360E-01 64688   0.363E+00    0.179E+00
DAV:   3    -0.306282785077E+03    0.34042E-01   -0.21263E-01 64896   0.250E+00    0.403E-01
DAV:   4    -0.306282646190E+03    0.13889E-03   -0.25592E-02 63928   0.794E-01    0.404E-01
DAV:   5    -0.306281395645E+03    0.12505E-02   -0.15977E-02 63608   0.640E-01    0.273E-01
DAV:   6    -0.306280995262E+03    0.40038E-03   -0.82809E-03 60568   0.437E-01    0.218E-01
DAV:   7    -0.306280900228E+03    0.95034E-04   -0.77265E-03 63120   0.381E-01    0.218E-01
DAV:   8    -0.306280571077E+03    0.32915E-03   -0.54460E-03 55328   0.358E-01    0.139E-01
DAV:   9    -0.306280358754E+03    0.21232E-03   -0.19062E-03 54800   0.212E-01    0.742E-02
DAV:  10    -0.306280315915E+03    0.42840E-04   -0.69766E-04 42424   0.139E-01
  21 F= -.30628032E+03 E0= -.30627822E+03  d E =-.880659E-02
 curvature:  -4.09 expect dE=-0.177E-01 dE for cont linesearch -0.138E-02
 ZBRENT: increasing intervall
 opt :   5.9422  next Energy=  -306.276565 (dE=-0.506E-02)
 bond charge predicted
       N       E                     dE             d eps       ncg     rms          rms(c)
DAV:   1    -0.306220360540E+03    0.59998E-01   -0.12906E+01 40072   0.123E+01    0.126E+00
DAV:   2    -0.306420719894E+03   -0.20036E+00   -0.16753E+00 64728   0.728E+00    0.349E+00
DAV:   3    -0.306289221747E+03    0.13150E+00   -0.83519E-01 64464   0.499E+00    0.826E-01
DAV:   4    -0.306287787215E+03    0.14345E-02   -0.10569E-01 64256   0.162E+00    0.768E-01
DAV:   5    -0.306283436459E+03    0.43508E-02   -0.60242E-02 65720   0.124E+00    0.551E-01
DAV:   6    -0.306281533829E+03    0.19026E-02   -0.30789E-02 65016   0.846E-01    0.408E-01
DAV:   7    -0.306281236430E+03    0.29740E-03   -0.26055E-02 65776   0.673E-01    0.404E-01
DAV:   8    -0.306280241183E+03    0.99525E-03   -0.19771E-02 63160   0.675E-01    0.287E-01
DAV:   9    -0.306279334458E+03    0.90672E-03   -0.80749E-03 60880   0.428E-01    0.144E-01
DAV:  10    -0.306279224666E+03    0.10979E-03   -0.31204E-03 59432   0.248E-01    0.106E-01
DAV:  11    -0.306279151883E+03    0.72782E-04   -0.13515E-03 51200   0.181E-01    0.636E-02
DAV:  12    -0.306279106748E+03    0.45136E-04   -0.37291E-04 34072   0.112E-01
  22 F= -.30627911E+03 E0= -.30627747E+03  d E =-.759742E-02
 curvature:  11.09 expect dE= 0.151E+00 dE for cont linesearch  0.800E-02
 ZBRENT: bracketing found
 ZBRENT: interpolating
 opt :   3.8261  next Energy=  -306.281826 (dE=-0.103E-01)
 bond charge predicted
       N       E                     dE             d eps       ncg     rms          rms(c)
DAV:   1    -0.306260772765E+03    0.18379E-01   -0.45336E+00 39656   0.726E+00    0.727E-01
DAV:   2    -0.306334061465E+03   -0.73289E-01   -0.60113E-01 64464   0.444E+00    0.217E+00
DAV:   3    -0.306285030480E+03    0.49031E-01   -0.31184E-01 64048   0.310E+00    0.452E-01
DAV:   4    -0.306284550382E+03    0.48010E-03   -0.32595E-02 62232   0.924E-01    0.425E-01
DAV:   5    -0.306283431097E+03    0.11193E-02   -0.20827E-02 63408   0.732E-01    0.321E-01
DAV:   6    -0.306282671347E+03    0.75975E-03   -0.99657E-03 59648   0.500E-01    0.228E-01
DAV:   7    -0.306282885145E+03   -0.21380E-03   -0.10524E-02 62144   0.457E-01    0.280E-01
DAV:   8    -0.306282250625E+03    0.63452E-03   -0.73220E-03 55640   0.410E-01    0.145E-01
DAV:   9    -0.306282011411E+03    0.23921E-03   -0.21495E-03 56704   0.212E-01    0.769E-02
DAV:  10    -0.306281980581E+03    0.30831E-04   -0.87468E-04 46080   0.149E-01
  23 F= -.30628198E+03 E0= -.30628003E+03  d E =-.104713E-01
 curvature:  -2.09 expect dE=-0.159E-01 dE for cont linesearch -0.659E-05
 trial: gam= 0.75477 g(F)=  0.503E-02 g(S)=  0.254E-02 ort = 0.201E-03 (trialstep = 0.105E+01)
 search vector abs. value=  0.152E-01
 bond charge predicted
       N       E                     dE             d eps       ncg     rms          rms(c)
DAV:   1    -0.306281195883E+03    0.81553E-03   -0.17696E+00 38528   0.542E+00    0.107E+00
DAV:   2    -0.306295660025E+03   -0.14464E-01   -0.25656E-01 66448   0.268E+00    0.910E-01
DAV:   3    -0.306297099377E+03   -0.14394E-02   -0.17471E-01 67232   0.212E+00    0.985E-01
DAV:   4    -0.306289313429E+03    0.77859E-02   -0.10305E-01 63672   0.158E+00    0.590E-01
DAV:   5    -0.306285535480E+03    0.37779E-02   -0.42694E-02 67080   0.916E-01    0.323E-01
DAV:   6    -0.306285288269E+03    0.24721E-03   -0.17970E-02 66816   0.636E-01    0.281E-01
DAV:   7    -0.306284709680E+03    0.57859E-03   -0.88043E-03 62416   0.471E-01    0.187E-01
DAV:   8    -0.306284542192E+03    0.16749E-03   -0.40994E-03 61512   0.284E-01    0.139E-01
DAV:   9    -0.306284472561E+03    0.69631E-04   -0.16321E-03 52448   0.197E-01    0.105E-01
DAV:  10    -0.306284422852E+03    0.49709E-04   -0.72443E-04 41520   0.143E-01
  24 F= -.30628442E+03 E0= -.30628256E+03  d E =-.244227E-02
 trial-energy change:   -0.002442  1 .order   -0.003149   -0.008105    0.001807
 step:   0.7698(harm=  0.8573)  dis= 0.00543  next Energy=  -306.284676 (dE=-0.270E-02)
 bond charge predicted
       N       E                     dE             d eps       ncg     rms          rms(c)
DAV:   1    -0.306284477753E+03   -0.51924E-05   -0.12550E-01 38576   0.145E+00    0.294E-01
DAV:   2    -0.306286124976E+03   -0.16472E-02   -0.22442E-02 67688   0.839E-01    0.321E-01
DAV:   3    -0.306285566302E+03    0.55867E-03   -0.14937E-02 66568   0.631E-01    0.233E-01
DAV:   4    -0.306285271682E+03    0.29462E-03   -0.69380E-03 58936   0.381E-01    0.185E-01
DAV:   5    -0.306284970361E+03    0.30132E-03   -0.40761E-03 55608   0.317E-01    0.121E-01
DAV:   6    -0.306284864985E+03    0.10538E-03   -0.17784E-03 55696   0.197E-01    0.629E-02
DAV:   7    -0.306284820223E+03    0.44762E-04   -0.51092E-04 37080   0.126E-01
  25 F= -.30628482E+03 E0= -.30628295E+03  d E =-.283964E-02
 curvature:  -0.67 expect dE=-0.481E-02 dE for cont linesearch -0.139E-05
 trial: gam= 0.99288 g(F)=  0.238E-02 g(S)=  0.484E-02 ort =-0.178E-03 (trialstep = 0.691E+00)
 search vector abs. value=  0.218E-01
 bond charge predicted
       N       E                     dE             d eps       ncg     rms          rms(c)
DAV:   1    -0.306281752755E+03    0.31122E-02   -0.11257E+00 38528   0.372E+00    0.385E-01
DAV:   2    -0.306290926663E+03   -0.91739E-02   -0.10914E-01 62976   0.155E+00    0.458E-01
DAV:   3    -0.306290157071E+03    0.76959E-03   -0.40086E-02 65264   0.969E-01    0.409E-01
DAV:   4    -0.306288979767E+03    0.11773E-02   -0.12684E-02 59024   0.580E-01    0.218E-01
DAV:   5    -0.306288547646E+03    0.43212E-03   -0.49828E-03 59872   0.346E-01    0.157E-01
DAV:   6    -0.306288522218E+03    0.25428E-04   -0.36137E-03 56552   0.308E-01    0.156E-01
DAV:   7    -0.306288444510E+03    0.77708E-04   -0.31806E-03 59832   0.276E-01    0.131E-01
DAV:   8    -0.306288288988E+03    0.15552E-03   -0.15450E-03 51560   0.206E-01    0.604E-02
DAV:   9    -0.306288237853E+03    0.51135E-04   -0.22786E-04 28168   0.106E-01
  26 F= -.30628824E+03 E0= -.30628641E+03  d E =-.341763E-02
 trial-energy change:   -0.003418  1 .order   -0.003389   -0.004863   -0.001914
 step:   1.1388(harm=  1.1388)  dis= 0.00999  next Energy=  -306.288830 (dE=-0.401E-02)
 bond charge predicted
       N       E                     dE             d eps       ncg     rms          rms(c)
DAV:   1    -0.306286118365E+03    0.21706E-02   -0.47481E-01 38536   0.242E+00    0.247E-01
DAV:   2    -0.306289879931E+03   -0.37616E-02   -0.45339E-02 62984   0.101E+00    0.289E-01
DAV:   3    -0.306289617214E+03    0.26272E-03   -0.15463E-02 65592   0.618E-01    0.258E-01
DAV:   4    -0.306289109660E+03    0.50755E-03   -0.48456E-03 56120   0.367E-01    0.130E-01
DAV:   5    -0.306288961032E+03    0.14863E-03   -0.19060E-03 54544   0.214E-01    0.997E-02
DAV:   6    -0.306288980779E+03   -0.19748E-04   -0.15196E-03 52648   0.209E-01    0.108E-01
DAV:   7    -0.306288922720E+03    0.58060E-04   -0.12930E-03 47672   0.193E-01    0.842E-02
DAV:   8    -0.306288846621E+03    0.76099E-04   -0.50512E-04 36312   0.143E-01
  27 F= -.30628885E+03 E0= -.30628704E+03  d E =-.402640E-02
 curvature:  -1.77 expect dE=-0.385E-02 dE for cont linesearch -0.423E-05
 trial: gam= 0.27647 g(F)=  0.200E-02 g(S)=  0.182E-03 ort = 0.229E-03 (trialstep = 0.780E+00)
 search vector abs. value=  0.397E-02
 bond charge predicted
       N       E                     dE             d eps       ncg     rms          rms(c)
DAV:   1    -0.306288928872E+03   -0.61527E-05   -0.22809E-01 38552   0.168E+00    0.161E-01
DAV:   2    -0.306290619857E+03   -0.16910E-02   -0.21546E-02 62136   0.738E-01    0.165E-01
DAV:   3    -0.306290737802E+03   -0.11794E-03   -0.67321E-03 65072   0.414E-01    0.186E-01
DAV:   4    -0.306290453679E+03    0.28412E-03   -0.27404E-03 52424   0.272E-01    0.957E-02
DAV:   5    -0.306290358922E+03    0.94757E-04   -0.75855E-04 43176   0.133E-01
  28 F= -.30629036E+03 E0= -.30628846E+03  d E =-.151230E-02
 ZBRENT: can't locate minimum, use default step
 trial-energy change:   -0.001512  1 .order   -0.001659   -0.001748   -0.001570
 step:   3.1209(harm=  7.6526)  dis= 0.01183  next Energy=  -306.297419 (dE=-0.857E-02)
 bond charge predicted
       N       E                     dE             d eps       ncg     rms          rms(c)
DAV:   1    -0.306281017975E+03    0.94357E-02   -0.20567E+00 38528   0.503E+00    0.503E-01
DAV:   2    -0.306297379610E+03   -0.16362E-01   -0.20125E-01 63464   0.228E+00    0.581E-01
DAV:   3    -0.306296571316E+03    0.80829E-03   -0.61005E-02 65872   0.131E+00    0.509E-01
DAV:   4    -0.306294662003E+03    0.19093E-02   -0.22458E-02 59136   0.820E-01    0.327E-01
DAV:   5    -0.306293714462E+03    0.94754E-03   -0.10135E-02 63392   0.477E-01    0.202E-01
DAV:   6    -0.306294062875E+03   -0.34841E-03   -0.75584E-03 57728   0.418E-01    0.273E-01
DAV:   7    -0.306293340335E+03    0.72254E-03   -0.55064E-03 62488   0.357E-01    0.103E-01
DAV:   8    -0.306293282110E+03    0.58225E-04   -0.17651E-03 55192   0.193E-01    0.962E-02
DAV:   9    -0.306293187185E+03    0.94925E-04   -0.82547E-04 43584   0.156E-01
  29 F= -.30629319E+03 E0= -.30629101E+03  d E =-.434056E-02
 curvature:  -3.84 expect dE=-0.932E-02 dE for cont linesearch -0.512E-03
 trial: gam= 0.00000 g(F)=  0.210E-02 g(S)=  0.324E-03 ort = 0.728E-03 (trialstep = 0.125E+01)
 search vector abs. value=  0.243E-02
 bond charge predicted
       N       E                     dE             d eps       ncg     rms          rms(c)
DAV:   1    -0.306294414655E+03   -0.11325E-02   -0.37976E-01 38536   0.231E+00    0.430E-01
DAV:   2    -0.306296088049E+03   -0.16734E-02   -0.38755E-02 64856   0.964E-01    0.322E-01
DAV:   3    -0.306297888874E+03   -0.18008E-02   -0.32301E-02 63552   0.905E-01    0.510E-01
DAV:   4    -0.306295450400E+03    0.24385E-02   -0.17686E-02 56904   0.692E-01    0.184E-01
DAV:   5    -0.306294984103E+03    0.46630E-03   -0.52344E-03 59448   0.278E-01    0.973E-02
DAV:   6    -0.306295009200E+03   -0.25096E-04   -0.22866E-03 58032   0.232E-01    0.112E-01
DAV:   7    -0.306294897367E+03    0.11183E-03   -0.13262E-03 52552   0.192E-01    0.562E-02
DAV:   8    -0.306294863126E+03    0.34242E-04   -0.21850E-04 26208   0.102E-01
  30 F= -.30629486E+03 E0= -.30629256E+03  d E =-.167594E-02
 trial-energy change:   -0.001676  1 .order   -0.001722   -0.003032   -0.000412
 step:   1.4445(harm=  1.4445)  dis= 0.00419  next Energy=  -306.294941 (dE=-0.175E-02)
 bond charge predicted
       N       E                     dE             d eps       ncg     rms          rms(c)
DAV:   1    -0.306294893526E+03    0.38416E-05   -0.96587E-03 41232   0.383E-01    0.692E-02
DAV:   2    -0.306295044692E+03   -0.15117E-03   -0.16396E-03 59392   0.218E-01    0.113E-01
DAV:   3    -0.306294939932E+03    0.10476E-03   -0.12905E-03 47312   0.188E-01    0.574E-02
DAV:   4    -0.306294926608E+03    0.13325E-04   -0.20170E-04 28360   0.968E-02
  31 F= -.30629493E+03 E0= -.30629261E+03  d E =-.173942E-02
 curvature:  -0.72 expect dE=-0.169E-02 dE for cont linesearch -0.577E-05
 trial: gam= 0.90447 g(F)=  0.866E-03 g(S)=  0.147E-02 ort = 0.139E-03 (trialstep = 0.684E+00)
 search vector abs. value=  0.458E-02
 bond charge predicted
       N       E                     dE             d eps       ncg     rms          rms(c)
DAV:   1    -0.306296489163E+03   -0.15492E-02   -0.17691E-01 38536   0.162E+00    0.327E-01
DAV:   2    -0.306297452423E+03   -0.96326E-03   -0.21969E-02 66600   0.715E-01    0.283E-01
DAV:   3    -0.306297635234E+03   -0.18281E-03   -0.20126E-02 67752   0.611E-01    0.328E-01
DAV:   4    -0.306297037766E+03    0.59747E-03   -0.10870E-02 56800   0.523E-01    0.225E-01
DAV:   5    -0.306296393967E+03    0.64380E-03   -0.41114E-03 61384   0.298E-01    0.901E-02
DAV:   6    -0.306296397320E+03   -0.33525E-05   -0.19566E-03 56176   0.199E-01    0.104E-01
DAV:   7    -0.306296328189E+03    0.69130E-04   -0.12828E-03 48320   0.191E-01    0.721E-02
DAV:   8    -0.306296270169E+03    0.58020E-04   -0.36019E-04 32400   0.114E-01
  32 F= -.30629627E+03 E0= -.30629385E+03  d E =-.134356E-02
 trial-energy change:   -0.001344  1 .order   -0.001283   -0.001683   -0.000884
 step:   1.4391(harm=  1.4391)  dis= 0.00659  next Energy=  -306.296698 (dE=-0.177E-02)
 bond charge predicted
       N       E                     dE             d eps       ncg     rms          rms(c)
DAV:   1    -0.306296956623E+03   -0.62843E-03   -0.21495E-01 38528   0.178E+00    0.350E-01
DAV:   2    -0.306298209590E+03   -0.12530E-02   -0.26675E-02 66648   0.837E-01    0.330E-01
DAV:   3    -0.306298060474E+03    0.14912E-03   -0.23631E-02 67640   0.700E-01    0.335E-01
DAV:   4    -0.306297472788E+03    0.58769E-03   -0.13170E-02 56768   0.553E-01    0.239E-01
DAV:   5    -0.306296836871E+03    0.63592E-03   -0.52708E-03 60112   0.337E-01    0.124E-01
DAV:   6    -0.306296774818E+03    0.62053E-04   -0.25690E-03 57616   0.247E-01    0.108E-01
DAV:   7    -0.306296714192E+03    0.60626E-04   -0.13834E-03 53088   0.192E-01    0.740E-02
DAV:   8    -0.306296653957E+03    0.60235E-04   -0.38377E-04 33168   0.117E-01
  33 F= -.30629665E+03 E0= -.30629415E+03  d E =-.172735E-02
 curvature:  -1.34 expect dE=-0.426E-02 dE for cont linesearch -0.807E-05
 trial: gam= 1.64867 g(F)=  0.148E-02 g(S)=  0.170E-02 ort =-0.166E-03 (trialstep = 0.253E+00)
 search vector abs. value=  0.151E-01
 bond charge predicted
       N       E                     dE             d eps       ncg     rms          rms(c)
DAV:   1    -0.306296992249E+03   -0.27806E-03   -0.73382E-02 38656   0.917E-01    0.953E-02
DAV:   2    -0.306297561575E+03   -0.56933E-03   -0.68603E-03 64224   0.426E-01    0.155E-01
DAV:   3    -0.306297401657E+03    0.15992E-03   -0.30508E-03 59424   0.284E-01    0.895E-02
DAV:   4    -0.306297352597E+03    0.49059E-04   -0.62851E-04 40400   0.142E-01
  34 F= -.30629735E+03 E0= -.30629481E+03  d E =-.698640E-03
 ZBRENT: can't locate minimum, use default step
 trial-energy change:   -0.000699  1 .order   -0.000722   -0.000738   -0.000707
 step:   1.0134(harm=  6.1972)  dis= 0.00865  next Energy=  -306.305674 (dE=-0.902E-02)
 bond charge predicted
       N       E                     dE             d eps       ncg     rms          rms(c)
DAV:   1    -0.306296030704E+03    0.13710E-02   -0.65945E-01 38536   0.273E+00    0.277E-01
DAV:   2    -0.306301076980E+03   -0.50463E-02   -0.60248E-02 64240   0.126E+00    0.435E-01
DAV:   3    -0.306299673738E+03    0.14032E-02   -0.25473E-02 65168   0.791E-01    0.268E-01
DAV:   4    -0.306299465265E+03    0.20847E-03   -0.79740E-03 58704   0.448E-01    0.210E-01
DAV:   5    -0.306298909448E+03    0.55582E-03   -0.32792E-03 59280   0.252E-01    0.953E-02
DAV:   6    -0.306299082277E+03   -0.17283E-03   -0.22057E-03 54616   0.237E-01    0.161E-01
DAV:   7    -0.306298846962E+03    0.23531E-03   -0.19893E-03 51408   0.243E-01    0.707E-02
DAV:   8    -0.306298802980E+03    0.43983E-04   -0.65013E-04 39552   0.143E-01
  35 F= -.30629880E+03 E0= -.30629610E+03  d E =-.214902E-02
 curvature:  -3.84 expect dE=-0.123E-01 dE for cont linesearch -0.750E-03
 trial: gam= 0.12691 g(F)=  0.245E-02 g(S)=  0.764E-03 ort = 0.172E-02 (trialstep = 0.405E+00)
 search vector abs. value=  0.389E-02
 bond charge predicted
       N       E                     dE             d eps       ncg     rms          rms(c)
DAV:   1    -0.306299802176E+03   -0.95521E-03   -0.75241E-02 39928   0.113E+00    0.223E-01
DAV:   2    -0.306300535309E+03   -0.73313E-03   -0.12359E-02 65976   0.566E-01    0.220E-01
DAV:   3    -0.306300540490E+03   -0.51815E-05   -0.10060E-02 64664   0.495E-01    0.233E-01
DAV:   4    -0.306300158796E+03    0.38169E-03   -0.43626E-03 57208   0.347E-01    0.122E-01
DAV:   5    -0.306299971919E+03    0.18688E-03   -0.18003E-03 54848   0.188E-01    0.787E-02
DAV:   6    -0.306299940112E+03    0.31807E-04   -0.93592E-04 45064   0.157E-01
  36 F= -.30629994E+03 E0= -.30629721E+03  d E =-.113713E-02
 ZBRENT: can't locate minimum, use default step
 trial-energy change:   -0.001137  1 .order   -0.001221   -0.001389   -0.001054
 step:   1.6214(harm=  1.6790)  dis= 0.00473  next Energy=  -306.301680 (dE=-0.288E-02)
 bond charge predicted
       N       E                     dE             d eps       ncg     rms          rms(c)
DAV:   1    -0.306299451356E+03    0.52056E-03   -0.67108E-01 38752   0.335E+00    0.659E-01
DAV:   2    -0.306306328231E+03   -0.68769E-02   -0.10792E-01 65984   0.171E+00    0.682E-01
DAV:   3    -0.306305725455E+03    0.60278E-03   -0.86474E-02 65536   0.149E+00    0.670E-01
DAV:   4    -0.306302498865E+03    0.32266E-02   -0.35793E-02 63208   0.981E-01    0.357E-01
DAV:   5    -0.306300967423E+03    0.15314E-02   -0.16895E-02 66064   0.547E-01    0.229E-01
DAV:   6    -0.306300839775E+03    0.12765E-03   -0.85121E-03 56712   0.438E-01    0.213E-01
DAV:   7    -0.306300521551E+03    0.31822E-03   -0.39923E-03 61384   0.309E-01    0.110E-01
DAV:   8    -0.306300435747E+03    0.85804E-04   -0.13731E-03 56304   0.144E-01    0.680E-02
DAV:   9    -0.306300416010E+03    0.19737E-04   -0.20008E-04 23968   0.102E-01
  37 F= -.30630042E+03 E0= -.30629768E+03  d E =-.161303E-02
 curvature:  -0.95 expect dE=-0.776E-02 dE for cont linesearch -0.328E-03
 trial: gam= 0.00000 g(F)=  0.915E-03 g(S)=  0.725E-02 ort =-0.116E-02 (trialstep = 0.309E+00)
 search vector abs. value=  0.816E-02
 bond charge predicted
       N       E                     dE             d eps       ncg     rms          rms(c)
DAV:   1    -0.306304643100E+03   -0.42074E-02   -0.10780E-01 51096   0.180E+00    0.501E-01
DAV:   2    -0.306304693306E+03   -0.50207E-04   -0.32722E-02 72984   0.795E-01    0.397E-01
DAV:   3    -0.306304856370E+03   -0.16306E-03   -0.42109E-02 65520   0.771E-01    0.452E-01
DAV:   4    -0.306303215003E+03    0.16414E-02   -0.19937E-02 58552   0.691E-01    0.275E-01
DAV:   5    -0.306302568114E+03    0.64689E-03   -0.89464E-03 67512   0.456E-01    0.193E-01
DAV:   6    -0.306302365185E+03    0.20293E-03   -0.63420E-03 58936   0.387E-01    0.155E-01
DAV:   7    -0.306302162078E+03    0.20311E-03   -0.27926E-03 60824   0.250E-01    0.741E-02
DAV:   8    -0.306302097489E+03    0.64589E-04   -0.75835E-04 42712   0.121E-01
  38 F= -.30630210E+03 E0= -.30629937E+03  d E =-.168148E-02
 trial-energy change:   -0.001681  1 .order   -0.001516   -0.002521   -0.000512
 step:   0.3875(harm=  0.3875)  dis= 0.00084  next Energy=  -306.301998 (dE=-0.158E-02)
 bond charge predicted
       N       E                     dE             d eps       ncg     rms          rms(c)
DAV:   1    -0.306302335682E+03   -0.17360E-03   -0.75190E-03 54560   0.483E-01    0.121E-01
DAV:   2    -0.306302547681E+03   -0.21200E-03   -0.32123E-03 64880   0.293E-01    0.169E-01
DAV:   3    -0.306302313361E+03    0.23432E-03   -0.36703E-03 56880   0.293E-01    0.108E-01
DAV:   4    -0.306302266635E+03    0.46727E-04   -0.12190E-03 49384   0.167E-01    0.749E-02
DAV:   5    -0.306302209271E+03    0.57363E-04   -0.61205E-04 38304   0.137E-01
  39 F= -.30630221E+03 E0= -.30629949E+03  d E =-.179326E-02
 curvature:  -0.19 expect dE=-0.145E-03 dE for cont linesearch -0.824E-05
 trial: gam= 0.01980 g(F)=  0.713E-03 g(S)=  0.374E-04 ort = 0.589E-03 (trialstep = 0.325E+00)
 search vector abs. value=  0.777E-03
 reached required accuracy - stopping structural energy minimisation
 writing wavefunctions
VASP is done!
