<?xml version="1.0" encoding="ISO-8859-1"?>
<modeling>
 <generator>
  <i name="program" type="string">vasp </i>
  <i name="version" type="string">5.4.4.18Apr17-6-g9f103f2a35  </i>
  <i name="subversion" type="string">(build Aug 09 2018 16:20:53) complex            parallel </i>
  <i name="platform" type="string">LinuxIFC </i>
  <i name="date" type="string">2020 05 02 </i>
  <i name="time" type="string">00:52:12 </i>
 </generator>
 <incar>
  <i type="string" name="SYSTEM"> Nb - Mo - Ta - Ti - V SQS</i>
  <i type="string" name="PREC">normal</i>
  <i type="int" name="ICHARG">     0</i>
  <i type="int" name="IBRION">     2</i>
  <i type="int" name="NSW">    50</i>
  <i type="int" name="ISIF">     3</i>
  <i name="ENCUT">    600.00000000</i>
  <i type="string" name="LREAL"> Auto</i>
  <i type="int" name="ISMEAR">     1</i>
  <i name="SIGMA">      0.20000000</i>
  <v type="int" name="KPOINT_BSE">    -1     0     0     0</v>
  <i type="string" name="GGA"> PS</i>
 </incar>
 <structure name="primitive_cell" >
  <crystal>
   <varray name="basis" >
    <v>      -3.16000000      -3.16000000      -3.16000000 </v>
    <v>       1.58000000       1.58000000      -7.90000000 </v>
    <v>       7.90000000      -7.90000000      -1.58000000 </v>
   </varray>
   <i name="volume">    473.31744000 </i>
   <varray name="rec_basis" >
    <v>      -0.13713080      -0.12658228      -0.05274262 </v>
    <v>       0.04219409       0.06329114      -0.10548523 </v>
    <v>       0.06329114      -0.06329114       0.00000000 </v>
   </varray>
  </crystal>
  <varray name="positions" >
   <v>      -0.03333333      -0.06666667       0.40000000 </v>
   <v>       0.30000000      -0.40000000       0.40000000 </v>
   <v>      -0.10000000      -0.20000000       0.20000000 </v>
   <v>       0.06666667       0.13333333       0.20000000 </v>
   <v>       0.46666667      -0.06666667       0.40000000 </v>
   <v>      -0.13333333      -0.26666667      -0.40000000 </v>
   <v>       0.03333333       0.06666667      -0.40000000 </v>
   <v>      -0.36666667       0.26666667       0.40000000 </v>
   <v>       0.40000000      -0.20000000       0.20000000 </v>
   <v>      -0.20000000      -0.40000000       0.40000000 </v>
   <v>      -0.43333333       0.13333333       0.20000000 </v>
   <v>       0.36666667      -0.26666667      -0.40000000 </v>
   <v>       0.13333333       0.26666667       0.40000000 </v>
   <v>      -0.46666667       0.06666667      -0.40000000 </v>
   <v>       0.23333333       0.46666667       0.20000000 </v>
   <v>       0.20000000       0.40000000      -0.40000000 </v>
   <v>       0.00000000       0.00000000       0.00000000 </v>
   <v>      -0.06666667      -0.13333333      -0.20000000 </v>
   <v>      -0.30000000       0.40000000      -0.40000000 </v>
   <v>      -0.26666667       0.46666667       0.20000000 </v>
   <v>       0.33333333      -0.33333333       0.00000000 </v>
   <v>       0.43333333      -0.13333333      -0.20000000 </v>
   <v>      -0.50000000       0.00000000       0.00000000 </v>
   <v>       0.26666667      -0.46666667      -0.20000000 </v>
   <v>      -0.33333333       0.33333333       0.00000000 </v>
   <v>      -0.40000000       0.20000000      -0.20000000 </v>
   <v>      -0.16666667      -0.33333333       0.00000000 </v>
   <v>      -0.23333333      -0.46666667      -0.20000000 </v>
   <v>       0.16666667       0.33333333       0.00000000 </v>
  </varray>
 </structure>
 <varray name="primitive_index" >
  <v type="int" >        1 </v>
  <v type="int" >       17 </v>
  <v type="int" >        6 </v>
  <v type="int" >       23 </v>
  <v type="int" >       19 </v>
  <v type="int" >       18 </v>
  <v type="int" >        5 </v>
  <v type="int" >        2 </v>
  <v type="int" >       15 </v>
  <v type="int" >        7 </v>
  <v type="int" >       14 </v>
  <v type="int" >       10 </v>
  <v type="int" >       11 </v>
  <v type="int" >       27 </v>
  <v type="int" >       29 </v>
  <v type="int" >       22 </v>
  <v type="int" >        4 </v>
  <v type="int" >       13 </v>
  <v type="int" >       25 </v>
  <v type="int" >        8 </v>
  <v type="int" >       28 </v>
  <v type="int" >       16 </v>
  <v type="int" >        3 </v>
  <v type="int" >       21 </v>
  <v type="int" >        9 </v>
  <v type="int" >       26 </v>
  <v type="int" >       12 </v>
  <v type="int" >       24 </v>
  <v type="int" >       20 </v>
 </varray>
 <kpoints>
  <generation param="Gamma">
   <v type="int" name="divisions">       7        7        7 </v>
   <v name="usershift">      0.00000000       0.00000000       0.00000000 </v>
   <v name="genvec1">      0.14285714       0.00000000       0.00000000 </v>
   <v name="genvec2">     -0.00000000       0.14285714       0.00000000 </v>
   <v name="genvec3">      0.00000000       0.00000000       0.14285714 </v>
   <v name="shift">      0.00000000       0.00000000       0.00000000 </v>
  </generation>
  <varray name="kpointlist" >
   <v>       0.00000000       0.00000000       0.00000000 </v>
   <v>       0.14285714       0.00000000      -0.00000000 </v>
   <v>       0.28571429       0.00000000       0.00000000 </v>
   <v>       0.42857143       0.00000000      -0.00000000 </v>
   <v>      -0.00000000       0.14285714       0.00000000 </v>
   <v>       0.14285714       0.14285714      -0.00000000 </v>
   <v>       0.28571429       0.14285714       0.00000000 </v>
   <v>       0.42857143       0.14285714      -0.00000000 </v>
   <v>      -0.42857143       0.14285714       0.00000000 </v>
   <v>      -0.28571429       0.14285714       0.00000000 </v>
   <v>      -0.14285714       0.14285714       0.00000000 </v>
   <v>       0.00000000       0.28571429      -0.00000000 </v>
   <v>       0.14285714       0.28571429      -0.00000000 </v>
   <v>       0.28571429       0.28571429      -0.00000000 </v>
   <v>       0.42857143       0.28571429      -0.00000000 </v>
   <v>      -0.42857143       0.28571429      -0.00000000 </v>
   <v>      -0.28571429       0.28571429      -0.00000000 </v>
   <v>      -0.14285714       0.28571429      -0.00000000 </v>
   <v>      -0.00000000       0.42857143      -0.00000000 </v>
   <v>       0.14285714       0.42857143       0.00000000 </v>
   <v>       0.28571429       0.42857143       0.00000000 </v>
   <v>       0.42857143       0.42857143      -0.00000000 </v>
   <v>      -0.42857143       0.42857143       0.00000000 </v>
   <v>      -0.28571429       0.42857143      -0.00000000 </v>
   <v>      -0.14285714       0.42857143      -0.00000000 </v>
   <v>       0.00000000       0.00000000       0.14285714 </v>
   <v>       0.14285714       0.00000000       0.14285714 </v>
   <v>       0.28571429       0.00000000       0.14285714 </v>
   <v>       0.42857143       0.00000000       0.14285714 </v>
   <v>      -0.42857143       0.00000000       0.14285714 </v>
   <v>      -0.28571429       0.00000000       0.14285714 </v>
   <v>      -0.14285714      -0.00000000       0.14285714 </v>
   <v>      -0.00000000       0.14285714       0.14285714 </v>
   <v>       0.14285714       0.14285714       0.14285714 </v>
   <v>       0.28571429       0.14285714       0.14285714 </v>
   <v>       0.42857143       0.14285714       0.14285714 </v>
   <v>      -0.42857143       0.14285714       0.14285714 </v>
   <v>      -0.28571429       0.14285714       0.14285714 </v>
   <v>      -0.14285714       0.14285714       0.14285714 </v>
   <v>      -0.00000000       0.28571429       0.14285714 </v>
   <v>       0.14285714       0.28571429       0.14285714 </v>
   <v>       0.28571429       0.28571429       0.14285714 </v>
   <v>       0.42857143       0.28571429       0.14285714 </v>
   <v>      -0.42857143       0.28571429       0.14285714 </v>
   <v>      -0.28571429       0.28571429       0.14285714 </v>
   <v>      -0.14285714       0.28571429       0.14285714 </v>
   <v>       0.00000000       0.42857143       0.14285714 </v>
   <v>       0.14285714       0.42857143       0.14285714 </v>
   <v>       0.28571429       0.42857143       0.14285714 </v>
   <v>       0.42857143       0.42857143       0.14285714 </v>
   <v>      -0.42857143       0.42857143       0.14285714 </v>
   <v>      -0.28571429       0.42857143       0.14285714 </v>
   <v>      -0.14285714       0.42857143       0.14285714 </v>
   <v>       0.00000000      -0.42857143       0.14285714 </v>
   <v>       0.14285714      -0.42857143       0.14285714 </v>
   <v>       0.28571429      -0.42857143       0.14285714 </v>
   <v>       0.42857143      -0.42857143       0.14285714 </v>
   <v>      -0.42857143      -0.42857143       0.14285714 </v>
   <v>      -0.28571429      -0.42857143       0.14285714 </v>
   <v>      -0.14285714      -0.42857143       0.14285714 </v>
   <v>       0.00000000      -0.28571429       0.14285714 </v>
   <v>       0.14285714      -0.28571429       0.14285714 </v>
   <v>       0.28571429      -0.28571429       0.14285714 </v>
   <v>       0.42857143      -0.28571429       0.14285714 </v>
   <v>      -0.42857143      -0.28571429       0.14285714 </v>
   <v>      -0.28571429      -0.28571429       0.14285714 </v>
   <v>      -0.14285714      -0.28571429       0.14285714 </v>
   <v>       0.00000000      -0.14285714       0.14285714 </v>
   <v>       0.14285714      -0.14285714       0.14285714 </v>
   <v>       0.28571429      -0.14285714       0.14285714 </v>
   <v>       0.42857143      -0.14285714       0.14285714 </v>
   <v>      -0.42857143      -0.14285714       0.14285714 </v>
   <v>      -0.28571429      -0.14285714       0.14285714 </v>
   <v>      -0.14285714      -0.14285714       0.14285714 </v>
   <v>       0.00000000       0.00000000       0.28571429 </v>
   <v>       0.14285714       0.00000000       0.28571429 </v>
   <v>       0.28571429       0.00000000       0.28571429 </v>
   <v>       0.42857143       0.00000000       0.28571429 </v>
   <v>      -0.42857143      -0.00000000       0.28571429 </v>
   <v>      -0.28571429      -0.00000000       0.28571429 </v>
   <v>      -0.14285714      -0.00000000       0.28571429 </v>
   <v>      -0.00000000       0.14285714       0.28571429 </v>
   <v>       0.14285714       0.14285714       0.28571429 </v>
   <v>       0.28571429       0.14285714       0.28571429 </v>
   <v>       0.42857143       0.14285714       0.28571429 </v>
   <v>      -0.42857143       0.14285714       0.28571429 </v>
   <v>      -0.28571429       0.14285714       0.28571429 </v>
   <v>      -0.14285714       0.14285714       0.28571429 </v>
   <v>      -0.00000000       0.28571429       0.28571429 </v>
   <v>       0.14285714       0.28571429       0.28571429 </v>
   <v>       0.28571429       0.28571429       0.28571429 </v>
   <v>       0.42857143       0.28571429       0.28571429 </v>
   <v>      -0.42857143       0.28571429       0.28571429 </v>
   <v>      -0.28571429       0.28571429       0.28571429 </v>
   <v>      -0.14285714       0.28571429       0.28571429 </v>
   <v>       0.00000000       0.42857143       0.28571429 </v>
   <v>       0.14285714       0.42857143       0.28571429 </v>
   <v>       0.28571429       0.42857143       0.28571429 </v>
   <v>       0.42857143       0.42857143       0.28571429 </v>
   <v>      -0.42857143       0.42857143       0.28571429 </v>
   <v>      -0.28571429       0.42857143       0.28571429 </v>
   <v>      -0.14285714       0.42857143       0.28571429 </v>
   <v>      -0.00000000      -0.42857143       0.28571429 </v>
   <v>       0.14285714      -0.42857143       0.28571429 </v>
   <v>       0.28571429      -0.42857143       0.28571429 </v>
   <v>       0.42857143      -0.42857143       0.28571429 </v>
   <v>      -0.42857143      -0.42857143       0.28571429 </v>
   <v>      -0.28571429      -0.42857143       0.28571429 </v>
   <v>      -0.14285714      -0.42857143       0.28571429 </v>
   <v>       0.00000000      -0.28571429       0.28571429 </v>
   <v>       0.14285714      -0.28571429       0.28571429 </v>
   <v>       0.28571429      -0.28571429       0.28571429 </v>
   <v>       0.42857143      -0.28571429       0.28571429 </v>
   <v>      -0.42857143      -0.28571429       0.28571429 </v>
   <v>      -0.28571429      -0.28571429       0.28571429 </v>
   <v>      -0.14285714      -0.28571429       0.28571429 </v>
   <v>       0.00000000      -0.14285714       0.28571429 </v>
   <v>       0.14285714      -0.14285714       0.28571429 </v>
   <v>       0.28571429      -0.14285714       0.28571429 </v>
   <v>       0.42857143      -0.14285714       0.28571429 </v>
   <v>      -0.42857143      -0.14285714       0.28571429 </v>
   <v>      -0.28571429      -0.14285714       0.28571429 </v>
   <v>      -0.14285714      -0.14285714       0.28571429 </v>
   <v>       0.00000000       0.00000000       0.42857143 </v>
   <v>       0.14285714       0.00000000       0.42857143 </v>
   <v>       0.28571429       0.00000000       0.42857143 </v>
   <v>       0.42857143      -0.00000000       0.42857143 </v>
   <v>      -0.42857143      -0.00000000       0.42857143 </v>
   <v>      -0.28571429       0.00000000       0.42857143 </v>
   <v>      -0.14285714      -0.00000000       0.42857143 </v>
   <v>      -0.00000000       0.14285714       0.42857143 </v>
   <v>       0.14285714       0.14285714       0.42857143 </v>
   <v>       0.28571429       0.14285714       0.42857143 </v>
   <v>       0.42857143       0.14285714       0.42857143 </v>
   <v>      -0.42857143       0.14285714       0.42857143 </v>
   <v>      -0.28571429       0.14285714       0.42857143 </v>
   <v>      -0.14285714       0.14285714       0.42857143 </v>
   <v>       0.00000000       0.28571429       0.42857143 </v>
   <v>       0.14285714       0.28571429       0.42857143 </v>
   <v>       0.28571429       0.28571429       0.42857143 </v>
   <v>       0.42857143       0.28571429       0.42857143 </v>
   <v>      -0.42857143       0.28571429       0.42857143 </v>
   <v>      -0.28571429       0.28571429       0.42857143 </v>
   <v>      -0.14285714       0.28571429       0.42857143 </v>
   <v>       0.00000000       0.42857143       0.42857143 </v>
   <v>       0.14285714       0.42857143       0.42857143 </v>
   <v>       0.28571429       0.42857143       0.42857143 </v>
   <v>       0.42857143       0.42857143       0.42857143 </v>
   <v>      -0.42857143       0.42857143       0.42857143 </v>
   <v>      -0.28571429       0.42857143       0.42857143 </v>
   <v>      -0.14285714       0.42857143       0.42857143 </v>
   <v>       0.00000000      -0.42857143       0.42857143 </v>
   <v>       0.14285714      -0.42857143       0.42857143 </v>
   <v>       0.28571429      -0.42857143       0.42857143 </v>
   <v>       0.42857143      -0.42857143       0.42857143 </v>
   <v>      -0.42857143      -0.42857143       0.42857143 </v>
   <v>      -0.28571429      -0.42857143       0.42857143 </v>
   <v>      -0.14285714      -0.42857143       0.42857143 </v>
   <v>      -0.00000000      -0.28571429       0.42857143 </v>
   <v>       0.14285714      -0.28571429       0.42857143 </v>
   <v>       0.28571429      -0.28571429       0.42857143 </v>
   <v>       0.42857143      -0.28571429       0.42857143 </v>
   <v>      -0.42857143      -0.28571429       0.42857143 </v>
   <v>      -0.28571429      -0.28571429       0.42857143 </v>
   <v>      -0.14285714      -0.28571429       0.42857143 </v>
   <v>       0.00000000      -0.14285714       0.42857143 </v>
   <v>       0.14285714      -0.14285714       0.42857143 </v>
   <v>       0.28571429      -0.14285714       0.42857143 </v>
   <v>       0.42857143      -0.14285714       0.42857143 </v>
   <v>      -0.42857143      -0.14285714       0.42857143 </v>
   <v>      -0.28571429      -0.14285714       0.42857143 </v>
   <v>      -0.14285714      -0.14285714       0.42857143 </v>
  </varray>
  <varray name="weights" >
   <v>       0.00291545 </v>
   <v>       0.00583090 </v>
   <v>       0.00583090 </v>
   <v>       0.00583090 </v>
   <v>       0.00583090 </v>
   <v>       0.00583090 </v>
   <v>       0.00583090 </v>
   <v>       0.00583090 </v>
   <v>       0.00583090 </v>
   <v>       0.00583090 </v>
   <v>       0.00583090 </v>
   <v>       0.00583090 </v>
   <v>       0.00583090 </v>
   <v>       0.00583090 </v>
   <v>       0.00583090 </v>
   <v>       0.00583090 </v>
   <v>       0.00583090 </v>
   <v>       0.00583090 </v>
   <v>       0.00583090 </v>
   <v>       0.00583090 </v>
   <v>       0.00583090 </v>
   <v>       0.00583090 </v>
   <v>       0.00583090 </v>
   <v>       0.00583090 </v>
   <v>       0.00583090 </v>
   <v>       0.00583090 </v>
   <v>       0.00583090 </v>
   <v>       0.00583090 </v>
   <v>       0.00583090 </v>
   <v>       0.00583090 </v>
   <v>       0.00583090 </v>
   <v>       0.00583090 </v>
   <v>       0.00583090 </v>
   <v>       0.00583090 </v>
   <v>       0.00583090 </v>
   <v>       0.00583090 </v>
   <v>       0.00583090 </v>
   <v>       0.00583090 </v>
   <v>       0.00583090 </v>
   <v>       0.00583090 </v>
   <v>       0.00583090 </v>
   <v>       0.00583090 </v>
   <v>       0.00583090 </v>
   <v>       0.00583090 </v>
   <v>       0.00583090 </v>
   <v>       0.00583090 </v>
   <v>       0.00583090 </v>
   <v>       0.00583090 </v>
   <v>       0.00583090 </v>
   <v>       0.00583090 </v>
   <v>       0.00583090 </v>
   <v>       0.00583090 </v>
   <v>       0.00583090 </v>
   <v>       0.00583090 </v>
   <v>       0.00583090 </v>
   <v>       0.00583090 </v>
   <v>       0.00583090 </v>
   <v>       0.00583090 </v>
   <v>       0.00583090 </v>
   <v>       0.00583090 </v>
   <v>       0.00583090 </v>
   <v>       0.00583090 </v>
   <v>       0.00583090 </v>
   <v>       0.00583090 </v>
   <v>       0.00583090 </v>
   <v>       0.00583090 </v>
   <v>       0.00583090 </v>
   <v>       0.00583090 </v>
   <v>       0.00583090 </v>
   <v>       0.00583090 </v>
   <v>       0.00583090 </v>
   <v>       0.00583090 </v>
   <v>       0.00583090 </v>
   <v>       0.00583090 </v>
   <v>       0.00583090 </v>
   <v>       0.00583090 </v>
   <v>       0.00583090 </v>
   <v>       0.00583090 </v>
   <v>       0.00583090 </v>
   <v>       0.00583090 </v>
   <v>       0.00583090 </v>
   <v>       0.00583090 </v>
   <v>       0.00583090 </v>
   <v>       0.00583090 </v>
   <v>       0.00583090 </v>
   <v>       0.00583090 </v>
   <v>       0.00583090 </v>
   <v>       0.00583090 </v>
   <v>       0.00583090 </v>
   <v>       0.00583090 </v>
   <v>       0.00583090 </v>
   <v>       0.00583090 </v>
   <v>       0.00583090 </v>
   <v>       0.00583090 </v>
   <v>       0.00583090 </v>
   <v>       0.00583090 </v>
   <v>       0.00583090 </v>
   <v>       0.00583090 </v>
   <v>       0.00583090 </v>
   <v>       0.00583090 </v>
   <v>       0.00583090 </v>
   <v>       0.00583090 </v>
   <v>       0.00583090 </v>
   <v>       0.00583090 </v>
   <v>       0.00583090 </v>
   <v>       0.00583090 </v>
   <v>       0.00583090 </v>
   <v>       0.00583090 </v>
   <v>       0.00583090 </v>
   <v>       0.00583090 </v>
   <v>       0.00583090 </v>
   <v>       0.00583090 </v>
   <v>       0.00583090 </v>
   <v>       0.00583090 </v>
   <v>       0.00583090 </v>
   <v>       0.00583090 </v>
   <v>       0.00583090 </v>
   <v>       0.00583090 </v>
   <v>       0.00583090 </v>
   <v>       0.00583090 </v>
   <v>       0.00583090 </v>
   <v>       0.00583090 </v>
   <v>       0.00583090 </v>
   <v>       0.00583090 </v>
   <v>       0.00583090 </v>
   <v>       0.00583090 </v>
   <v>       0.00583090 </v>
   <v>       0.00583090 </v>
   <v>       0.00583090 </v>
   <v>       0.00583090 </v>
   <v>       0.00583090 </v>
   <v>       0.00583090 </v>
   <v>       0.00583090 </v>
   <v>       0.00583090 </v>
   <v>       0.00583090 </v>
   <v>       0.00583090 </v>
   <v>       0.00583090 </v>
   <v>       0.00583090 </v>
   <v>       0.00583090 </v>
   <v>       0.00583090 </v>
   <v>       0.00583090 </v>
   <v>       0.00583090 </v>
   <v>       0.00583090 </v>
   <v>       0.00583090 </v>
   <v>       0.00583090 </v>
   <v>       0.00583090 </v>
   <v>       0.00583090 </v>
   <v>       0.00583090 </v>
   <v>       0.00583090 </v>
   <v>       0.00583090 </v>
   <v>       0.00583090 </v>
   <v>       0.00583090 </v>
   <v>       0.00583090 </v>
   <v>       0.00583090 </v>
   <v>       0.00583090 </v>
   <v>       0.00583090 </v>
   <v>       0.00583090 </v>
   <v>       0.00583090 </v>
   <v>       0.00583090 </v>
   <v>       0.00583090 </v>
   <v>       0.00583090 </v>
   <v>       0.00583090 </v>
   <v>       0.00583090 </v>
   <v>       0.00583090 </v>
   <v>       0.00583090 </v>
   <v>       0.00583090 </v>
   <v>       0.00583090 </v>
   <v>       0.00583090 </v>
   <v>       0.00583090 </v>
   <v>       0.00583090 </v>
   <v>       0.00583090 </v>
   <v>       0.00583090 </v>
  </varray>
 </kpoints>
 <parameters>
  <separator name="general" >
   <i type="string" name="SYSTEM">Nb - Mo - Ta - Ti - V SQS</i>
   <i type="logical" name="LCOMPAT"> F  </i>
  </separator>
  <separator name="electronic" >
   <i type="string" name="PREC">normal</i>
   <i name="ENMAX">    600.00000000</i>
   <i name="ENAUG">    455.65900000</i>
   <i name="EDIFF">      0.00010000</i>
   <i type="int" name="IALGO">    38</i>
   <i type="int" name="IWAVPR">    11</i>
   <i type="int" name="NBANDS">   112</i>
   <i name="NELECT">    185.00000000</i>
   <i type="int" name="TURBO">     0</i>
   <i type="int" name="IRESTART">     0</i>
   <i type="int" name="NREBOOT">     0</i>
   <i type="int" name="NMIN">     0</i>
   <i name="EREF">      0.00000000</i>
   <separator name="electronic smearing" >
    <i type="int" name="ISMEAR">     1</i>
    <i name="SIGMA">      0.20000000</i>
    <i name="KSPACING">      0.50000000</i>
    <i type="logical" name="KGAMMA"> T  </i>
   </separator>
   <separator name="electronic projectors" >
    <i type="logical" name="LREAL"> T  </i>
    <v name="ROPT">     -0.00050000     -0.00050000     -0.00050000     -0.00050000     -0.00050000</v>
    <i type="int" name="LMAXPAW">  -100</i>
    <i type="int" name="LMAXMIX">     2</i>
    <i type="logical" name="NLSPLINE"> F  </i>
   </separator>
   <separator name="electronic startup" >
    <i type="int" name="ISTART">     0</i>
    <i type="int" name="ICHARG">     2</i>
    <i type="int" name="INIWAV">     1</i>
   </separator>
   <separator name="electronic spin" >
    <i type="int" name="ISPIN">     1</i>
    <i type="logical" name="LNONCOLLINEAR"> F  </i>
    <v name="MAGMOM">      1.00000000      1.00000000      1.00000000      1.00000000      1.00000000      1.00000000      1.00000000      1.00000000      1.00000000      1.00000000      1.00000000      1.00000000      1.00000000      1.00000000      1.00000000      1.00000000      1.00000000      1.00000000      1.00000000      1.00000000
      1.00000000      1.00000000      1.00000000      1.00000000      1.00000000      1.00000000      1.00000000      1.00000000      1.00000000</v>
    <i name="NUPDOWN">     -1.00000000</i>
    <i type="logical" name="LSORBIT"> F  </i>
    <v name="SAXIS">      0.00000000      0.00000000      1.00000000</v>
    <i type="logical" name="LSPIRAL"> F  </i>
    <v name="QSPIRAL">      0.00000000      0.00000000      0.00000000</v>
    <i type="logical" name="LZEROZ"> F  </i>
   </separator>
   <separator name="electronic exchange-correlation" >
    <i type="logical" name="LASPH"> F  </i>
    <i type="logical" name="LMETAGGA"> F  </i>
   </separator>
   <separator name="electronic convergence" >
    <i type="int" name="NELM">    60</i>
    <i type="int" name="NELMDL">     0</i>
    <i type="int" name="NELMIN">     2</i>
    <i name="ENINI">    600.00000000</i>
    <separator name="electronic convergence detail" >
     <i type="logical" name="LDIAG"> T  </i>
     <i type="logical" name="LSUBROT"> F  </i>
     <i name="WEIMIN">      0.00100000</i>
     <i name="EBREAK">      0.00000022</i>
     <i name="DEPER">      0.30000000</i>
     <i type="int" name="NRMM">     4</i>
     <i name="TIME">      0.40000000</i>
    </separator>
   </separator>
   <separator name="electronic mixer" >
    <i name="AMIX">      0.40000000</i>
    <i name="BMIX">      1.00000000</i>
    <i name="AMIN">      0.10000000</i>
    <i name="AMIX_MAG">      1.60000000</i>
    <i name="BMIX_MAG">      1.00000000</i>
    <separator name="electronic mixer details" >
     <i type="int" name="IMIX">     4</i>
     <i type="logical" name="MIXFIRST"> F  </i>
     <i type="int" name="MAXMIX">   -45</i>
     <i name="WC">    100.00000000</i>
     <i type="int" name="INIMIX">     1</i>
     <i type="int" name="MIXPRE">     1</i>
     <i type="int" name="MREMOVE">     5</i>
    </separator>
   </separator>
   <separator name="electronic dipolcorrection" >
    <i type="logical" name="LDIPOL"> F  </i>
    <i type="logical" name="LMONO"> F  </i>
    <i type="int" name="IDIPOL">     0</i>
    <i name="EPSILON">      1.00000000</i>
    <v name="DIPOL">   -100.00000000   -100.00000000   -100.00000000</v>
    <i name="EFIELD">      0.00000000</i>
   </separator>
  </separator>
  <separator name="grids" >
   <i type="int" name="NGX">    36</i>
   <i type="int" name="NGY">    50</i>
   <i type="int" name="NGZ">    70</i>
   <i type="int" name="NGXF">    72</i>
   <i type="int" name="NGYF">   100</i>
   <i type="int" name="NGZF">   140</i>
   <i type="logical" name="ADDGRID"> F  </i>
  </separator>
  <separator name="ionic" >
   <i type="int" name="NSW">    50</i>
   <i type="int" name="IBRION">     2</i>
   <i type="int" name="MDALGO">     0</i>
   <i type="int" name="ISIF">     3</i>
   <i name="PSTRESS">      0.00000000</i>
   <i name="EDIFFG">      0.00100000</i>
   <i type="int" name="NFREE">     1</i>
   <i name="POTIM">      0.50000000</i>
   <i name="SMASS">     -3.00000000</i>
   <i name="SCALEE">      1.00000000</i>
  </separator>
  <separator name="ionic md" >
   <i name="TEBEG">      0.00010000</i>
   <i name="TEEND">      0.00010000</i>
   <i type="int" name="NBLOCK">     1</i>
   <i type="int" name="KBLOCK">    50</i>
   <i type="int" name="NPACO">   256</i>
   <i name="APACO">     16.00000000</i>
  </separator>
  <separator name="symmetry" >
   <i type="int" name="ISYM">     2</i>
   <i name="SYMPREC">      0.00001000</i>
  </separator>
  <separator name="dos" >
   <i type="int" name="LORBIT">     0</i>
   <v name="RWIGS">     -1.00000000     -1.00000000     -1.00000000     -1.00000000     -1.00000000</v>
   <i type="int" name="NEDOS">   301</i>
   <i name="EMIN">     10.00000000</i>
   <i name="EMAX">    -10.00000000</i>
   <i name="EFERMI">      0.00000000</i>
  </separator>
  <separator name="writing" >
   <i type="int" name="NWRITE">     2</i>
   <i type="logical" name="LWAVE"> T  </i>
   <i type="logical" name="LDOWNSAMPLE"> F  </i>
   <i type="logical" name="LCHARG"> T  </i>
   <i type="logical" name="LPARD"> F  </i>
   <i type="logical" name="LVTOT"> F  </i>
   <i type="logical" name="LVHAR"> F  </i>
   <i type="logical" name="LELF"> F  </i>
   <i type="logical" name="LOPTICS"> F  </i>
   <v name="STM">      0.00000000      0.00000000      0.00000000      0.00000000      0.00000000      0.00000000      0.00000000</v>
  </separator>
  <separator name="performance" >
   <i type="int" name="NPAR">     8</i>
   <i type="int" name="NSIM">     4</i>
   <i type="int" name="NBLK">    -1</i>
   <i type="logical" name="LPLANE"> T  </i>
   <i type="logical" name="LSCALAPACK"> T  </i>
   <i type="logical" name="LSCAAWARE"> F  </i>
   <i type="logical" name="LSCALU"> F  </i>
   <i type="logical" name="LASYNC"> F  </i>
   <i type="logical" name="LORBITALREAL"> F  </i>
  </separator>
  <separator name="miscellaneous" >
   <i type="int" name="IDIOT">     3</i>
   <i type="int" name="ISPECIAL">     0</i>
   <i type="logical" name="LMUSIC"> F  </i>
   <v name="POMASS">     92.91000000     95.94000000    180.94800000     47.88000000     50.94100000</v>
   <v name="DARWINR">      0.00000000      0.00000000      0.00000000      0.00000000      0.00000000</v>
   <v name="DARWINV">      1.00000000      1.00000000      1.00000000      1.00000000      1.00000000</v>
   <i type="logical" name="LCORR"> T  </i>
  </separator>
  <i type="logical" name="GGA_COMPAT"> T  </i>
  <i type="logical" name="LBERRY"> F  </i>
  <i type="int" name="ICORELEVEL">     0</i>
  <i type="logical" name="LDAU"> F  </i>
  <i type="int" name="I_CONSTRAINED_M">     0</i>
  <separator name="electronic exchange-correlation" >
   <i type="string" name="GGA">PS</i>
   <i type="int" name="VOSKOWN">     0</i>
   <i type="logical" name="LHFCALC"> F  </i>
   <i type="string" name="PRECFOCK"></i>
   <i type="logical" name="LSYMGRAD"> F  </i>
   <i type="logical" name="LHFONE"> F  </i>
   <i type="logical" name="LRHFCALC"> F  </i>
   <i type="logical" name="LTHOMAS"> F  </i>
   <i type="logical" name="LMODELHF"> F  </i>
   <i name="ENCUT4O">     -1.00000000</i>
   <i type="int" name="EXXOEP">     0</i>
   <i type="int" name="FOURORBIT">     0</i>
   <i name="AEXX">      0.00000000</i>
   <i name="HFALPHA">      0.00000000</i>
   <i name="MCALPHA">      0.00000000</i>
   <i name="ALDAX">      1.00000000</i>
   <i name="AGGAX">      1.00000000</i>
   <i name="ALDAC">      1.00000000</i>
   <i name="AGGAC">      1.00000000</i>
   <i type="int" name="NKREDX">     1</i>
   <i type="int" name="NKREDY">     1</i>
   <i type="int" name="NKREDZ">     1</i>
   <i type="logical" name="SHIFTRED"> F  </i>
   <i type="logical" name="ODDONLY"> F  </i>
   <i type="logical" name="EVENONLY"> F  </i>
   <i type="int" name="LMAXFOCK">     0</i>
   <i type="int" name="NMAXFOCKAE">     0</i>
   <i type="logical" name="LFOCKAEDFT"> F  </i>
   <i name="HFSCREEN">      0.00000000</i>
   <i name="HFSCREENC">      0.00000000</i>
   <i type="int" name="NBANDSGWLOW">     0</i>
  </separator>
  <separator name="vdW DFT" >
   <i type="logical" name="LUSE_VDW"> F  </i>
   <i name="Zab_VDW">     -0.84910000</i>
   <i name="PARAM1">      0.12340000</i>
   <i name="PARAM2">      1.00000000</i>
   <i name="PARAM3">      0.00000000</i>
  </separator>
  <separator name="model GW" >
   <i type="int" name="MODEL_GW">     0</i>
   <i name="MODEL_EPS0">      9.79277462</i>
   <i name="MODEL_ALPHA">      1.00000000</i>
  </separator>
  <separator name="linear response parameters" >
   <i type="logical" name="LEPSILON"> F  </i>
   <i type="logical" name="LRPA"> F  </i>
   <i type="logical" name="LNABLA"> F  </i>
   <i type="logical" name="LVEL"> F  </i>
   <i type="int" name="KINTER">     0</i>
   <i name="CSHIFT">      0.10000000</i>
   <i name="OMEGAMAX">     -1.00000000</i>
   <i name="DEG_THRESHOLD">      0.00200000</i>
   <i name="RTIME">     -0.10000000</i>
   <i name="WPLASMAI">      0.00000000</i>
   <v name="DFIELD">      0.00000000      0.00000000      0.00000000</v>
   <v name="WPLASMA">      0.00000000      0.00000000      0.00000000      0.00000000      0.00000000      0.00000000      0.00000000      0.00000000      0.00000000</v>
  </separator>
  <separator name="orbital magnetization" >
   <i type="logical" name="NUCIND"> F  </i>
   <v name="MAGPOS">      0.00000000      0.00000000      0.00000000</v>
   <i type="logical" name="LNICSALL"> T  </i>
   <i type="logical" name="ORBITALMAG"> F  </i>
   <i type="logical" name="LMAGBLOCH"> F  </i>
   <i type="logical" name="LCHIMAG"> F  </i>
   <i type="logical" name="LGAUGE"> T  </i>
   <i type="int" name="MAGATOM">     0</i>
   <v name="MAGDIPOL">      0.00000000      0.00000000      0.00000000</v>
   <v name="AVECCONST">      0.00000000      0.00000000      0.00000000</v>
  </separator>
  <separator name="response functions" >
   <i type="logical" name="LADDER"> F  </i>
   <i type="logical" name="LRPAFORCE"> F  </i>
   <i type="logical" name="LFXC"> F  </i>
   <i type="logical" name="LHARTREE"> T  </i>
   <i type="int" name="IBSE">     0</i>
   <v type="int" name="KPOINT">    -1     0     0     0</v>
   <i type="logical" name="LTCTE"> F  </i>
   <i type="logical" name="LTETE"> F  </i>
   <i type="logical" name="LTRIPLET"> F  </i>
   <i type="logical" name="LFXCEPS"> F  </i>
   <i type="logical" name="LFXHEG"> F  </i>
   <i type="int" name="NATURALO">     2</i>
   <i type="logical" name="L2ORDER"> F  </i>
   <i type="logical" name="LMP2LT"> F  </i>
   <i type="logical" name="LUSEW"> F  </i>
   <i name="ENCUTGW">     -2.00000000</i>
   <i name="ENCUTGWSOFT">     -2.00000000</i>
   <i name="ENCUTLF">     -1.00000000</i>
   <i type="int" name="LMAXMP2">    -1</i>
   <i name="SCISSOR">      0.00000000</i>
   <i type="int" name="NOMEGA">     0</i>
   <i type="int" name="NOMEGAR">     0</i>
   <i type="int" name="NBANDSGW">    -1</i>
   <i type="int" name="NBANDSO">    -1</i>
   <i type="int" name="NBANDSV">    -1</i>
   <i type="int" name="NELM">     1</i>
   <i type="int" name="NELMHF">     1</i>
   <i type="int" name="DIM">     3</i>
   <i type="int" name="ANTIRES">     0</i>
   <i name="OMEGAMAX">    -30.00000000</i>
   <i name="OMEGAMIN">    -30.00000000</i>
   <i name="OMEGATL">   -200.00000000</i>
   <i type="int" name="OMEGAGRID">   140</i>
   <i name="CSHIFT">     -0.10000000</i>
   <i type="logical" name="SELFENERGY"> F  </i>
   <i type="logical" name="LSPECTRAL"> F  </i>
   <i type="logical" name="LSPECTRALGW"> F  </i>
   <i type="logical" name="LSINGLES"> F  </i>
   <i type="logical" name="LFERMIGW"> F  </i>
   <i type="logical" name="ODDONLYGW"> F  </i>
   <i type="logical" name="EVENONLYGW"> F  </i>
   <i type="int" name="NKREDLFX">     1</i>
   <i type="int" name="NKREDLFY">     1</i>
   <i type="int" name="NKREDLFZ">     1</i>
   <i type="int" name="MAXMEM">  2800</i>
   <i type="int" name="TELESCOPE">     0</i>
   <i type="int" name="TAUPAR">     1</i>
   <i type="int" name="OMEGAPAR">    -1</i>
   <i name="LAMBDA">      1.00000000</i>
  </separator>
  <separator name="External order field" >
   <i name="OFIELD_KAPPA">      0.00000000</i>
   <v name="OFIELD_K">      0.00000000      0.00000000      0.00000000</v>
   <i name="OFIELD_Q6_NEAR">      0.00000000</i>
   <i name="OFIELD_Q6_FAR">      0.00000000</i>
   <i name="OFIELD_A">      0.00000000</i>
  </separator>
  <separator name="solvation model" >
   <i type="logical" name="LSOL"> F  </i>
  </separator>
 </parameters>
 <atominfo>
  <atoms>      29 </atoms>
  <types>       5 </types>
  <array name="atoms" >
   <dimension dim="1">ion</dimension>
   <field type="string">element</field>
   <field type="int">atomtype</field>
   <set>
    <rc><c>Nb</c><c>   1</c></rc>
    <rc><c>Nb</c><c>   1</c></rc>
    <rc><c>Nb</c><c>   1</c></rc>
    <rc><c>Nb</c><c>   1</c></rc>
    <rc><c>Nb</c><c>   1</c></rc>
    <rc><c>Mo</c><c>   2</c></rc>
    <rc><c>Mo</c><c>   2</c></rc>
    <rc><c>Mo</c><c>   2</c></rc>
    <rc><c>Mo</c><c>   2</c></rc>
    <rc><c>Mo</c><c>   2</c></rc>
    <rc><c>Mo</c><c>   2</c></rc>
    <rc><c>Ta</c><c>   3</c></rc>
    <rc><c>Ta</c><c>   3</c></rc>
    <rc><c>Ta</c><c>   3</c></rc>
    <rc><c>Ta</c><c>   3</c></rc>
    <rc><c>Ta</c><c>   3</c></rc>
    <rc><c>Ta</c><c>   3</c></rc>
    <rc><c>Ti</c><c>   4</c></rc>
    <rc><c>Ti</c><c>   4</c></rc>
    <rc><c>Ti</c><c>   4</c></rc>
    <rc><c>Ti</c><c>   4</c></rc>
    <rc><c>Ti</c><c>   4</c></rc>
    <rc><c>Ti</c><c>   4</c></rc>
    <rc><c>V </c><c>   5</c></rc>
    <rc><c>V </c><c>   5</c></rc>
    <rc><c>V </c><c>   5</c></rc>
    <rc><c>V </c><c>   5</c></rc>
    <rc><c>V </c><c>   5</c></rc>
    <rc><c>V </c><c>   5</c></rc>
   </set>
  </array>
  <array name="atomtypes" >
   <dimension dim="1">type</dimension>
   <field type="int">atomspertype</field>
   <field type="string">element</field>
   <field>mass</field>
   <field>valence</field>
   <field type="string">pseudopotential</field>
   <set>
    <rc><c>   5</c><c>Nb</c><c>     92.91000000</c><c>     13.00000000</c><c>  PAW_PBE Nb_sv 25May2007               </c></rc>
    <rc><c>   6</c><c>Mo</c><c>     95.94000000</c><c>      6.00000000</c><c>  PAW_PBE Mo 08Apr2002                  </c></rc>
    <rc><c>   6</c><c>Ta</c><c>    180.94800000</c><c>      5.00000000</c><c>  PAW_PBE Ta 17Jan2003                  </c></rc>
    <rc><c>   6</c><c>Ti</c><c>     47.88000000</c><c>      4.00000000</c><c>  PAW_PBE Ti 08Apr2002                  </c></rc>
    <rc><c>   6</c><c>V </c><c>     50.94100000</c><c>      5.00000000</c><c>  PAW_PBE V 08Apr2002                   </c></rc>
   </set>
  </array>
 </atominfo>
 <structure name="initialpos" >
  <crystal>
   <varray name="basis" >
    <v>      -3.16000000      -3.16000000      -3.16000000 </v>
    <v>       1.58000000       1.58000000      -7.90000000 </v>
    <v>       7.90000000      -7.90000000      -1.58000000 </v>
   </varray>
   <i name="volume">    473.31744000 </i>
   <varray name="rec_basis" >
    <v>      -0.13713080      -0.12658228      -0.05274262 </v>
    <v>       0.04219409       0.06329114      -0.10548523 </v>
    <v>       0.06329114      -0.06329114       0.00000000 </v>
   </varray>
  </crystal>
  <varray name="positions" >
   <v>       0.96666667       0.93333333       0.40000000 </v>
   <v>       0.63333333       0.26666667       0.40000000 </v>
   <v>       0.50000000       0.00000000       0.00000000 </v>
   <v>       0.00000000       0.00000000       0.00000000 </v>
   <v>       0.03333333       0.06666667       0.60000000 </v>
   <v>       0.90000000       0.80000000       0.20000000 </v>
   <v>       0.80000000       0.60000000       0.40000000 </v>
   <v>       0.73333333       0.46666667       0.20000000 </v>
   <v>       0.66666667       0.33333333       0.00000000 </v>
   <v>       0.36666667       0.73333333       0.60000000 </v>
   <v>       0.13333333       0.26666667       0.40000000 </v>
   <v>       0.83333333       0.66666667       0.00000000 </v>
   <v>       0.93333333       0.86666667       0.80000000 </v>
   <v>       0.56666667       0.13333333       0.20000000 </v>
   <v>       0.40000000       0.80000000       0.20000000 </v>
   <v>       0.43333333       0.86666667       0.80000000 </v>
   <v>       0.30000000       0.60000000       0.40000000 </v>
   <v>       0.86666667       0.73333333       0.60000000 </v>
   <v>       0.46666667       0.93333333       0.40000000 </v>
   <v>       0.16666667       0.33333333       0.00000000 </v>
   <v>       0.26666667       0.53333333       0.80000000 </v>
   <v>       0.20000000       0.40000000       0.60000000 </v>
   <v>       0.06666667       0.13333333       0.20000000 </v>
   <v>       0.76666667       0.53333333       0.80000000 </v>
   <v>       0.70000000       0.40000000       0.60000000 </v>
   <v>       0.60000000       0.20000000       0.80000000 </v>
   <v>       0.53333333       0.06666667       0.60000000 </v>
   <v>       0.33333333       0.66666667       0.00000000 </v>
   <v>       0.23333333       0.46666667       0.20000000 </v>
  </varray>
 </structure>
 <calculation>
  <scstep>
   <time name="dav">   32.04   32.09</time>
   <time name="total">   32.13   32.20</time>
   <energy>
    <i name="alphaZ">   1104.47950323 </i>
    <i name="ewald"> -10124.47161348 </i>
    <i name="hartreedc">  -2859.12560199 </i>
    <i name="XCdc">   -950.01101808 </i>
    <i name="pawpsdc">  10856.58693382 </i>
    <i name="pawaedc">  -9371.53303474 </i>
    <i name="eentropy">     -0.00182843 </i>
    <i name="bandstr">   2223.60852494 </i>
    <i name="atom">  11451.57642151 </i>
    <i name="e_fr_energy">   2331.10828676 </i>
    <i name="e_wo_entrp">   2331.11011519 </i>
    <i name="e_0_energy">   2331.10889624 </i>
   </energy>
  </scstep>
  <scstep>
   <time name="dav">   35.23   35.28</time>
   <time name="total">   35.24   35.29</time>
   <energy>
    <i name="e_fr_energy">    242.38269550 </i>
    <i name="e_wo_entrp">    242.38058277 </i>
    <i name="e_0_energy">    242.38199126 </i>
   </energy>
  </scstep>
  <scstep>
   <time name="dav">   49.70   49.76</time>
   <time name="total">   49.71   49.77</time>
   <energy>
    <i name="e_fr_energy">   -249.50227354 </i>
    <i name="e_wo_entrp">   -249.50288147 </i>
    <i name="e_0_energy">   -249.50247618 </i>
   </energy>
  </scstep>
  <scstep>
   <time name="dav">   49.25   49.32</time>
   <time name="total">   49.26   49.33</time>
   <energy>
    <i name="e_fr_energy">   -326.47233325 </i>
    <i name="e_wo_entrp">   -326.48246643 </i>
    <i name="e_0_energy">   -326.47571097 </i>
   </energy>
  </scstep>
  <scstep>
   <time name="dav">   54.50   54.57</time>
   <time name="total">   55.34   55.41</time>
   <energy>
    <i name="e_fr_energy">   -336.98856564 </i>
    <i name="e_wo_entrp">   -336.99416228 </i>
    <i name="e_0_energy">   -336.99043119 </i>
   </energy>
  </scstep>
  <scstep>
   <time name="dav">   52.57   52.64</time>
   <time name="total">   53.46   53.53</time>
   <energy>
    <i name="e_fr_energy">   -393.87236495 </i>
    <i name="e_wo_entrp">   -393.87113739 </i>
    <i name="e_0_energy">   -393.87195577 </i>
   </energy>
  </scstep>
  <scstep>
   <time name="dav">   54.57   54.64</time>
   <time name="total">   55.46   55.53</time>
   <energy>
    <i name="e_fr_energy">   -304.96883339 </i>
    <i name="e_wo_entrp">   -304.96632365 </i>
    <i name="e_0_energy">   -304.96799681 </i>
   </energy>
  </scstep>
  <scstep>
   <time name="dav">   47.18   47.32</time>
   <time name="total">   48.06   48.23</time>
   <energy>
    <i name="e_fr_energy">   -328.74812433 </i>
    <i name="e_wo_entrp">   -328.75333636 </i>
    <i name="e_0_energy">   -328.74986167 </i>
   </energy>
  </scstep>
  <scstep>
   <time name="dav">   48.86   48.92</time>
   <time name="total">   49.75   49.81</time>
   <energy>
    <i name="e_fr_energy">   -313.34726838 </i>
    <i name="e_wo_entrp">   -313.34296429 </i>
    <i name="e_0_energy">   -313.34583368 </i>
   </energy>
  </scstep>
  <scstep>
   <time name="dav">   47.14   47.23</time>
   <time name="total">   48.02   48.12</time>
   <energy>
    <i name="e_fr_energy">   -308.61824775 </i>
    <i name="e_wo_entrp">   -308.60273106 </i>
    <i name="e_0_energy">   -308.61307552 </i>
   </energy>
  </scstep>
  <scstep>
   <time name="dav">   48.96   49.04</time>
   <time name="total">   49.85   49.93</time>
   <energy>
    <i name="e_fr_energy">   -306.32736865 </i>
    <i name="e_wo_entrp">   -306.32482318 </i>
    <i name="e_0_energy">   -306.32652016 </i>
   </energy>
  </scstep>
  <scstep>
   <time name="dav">   48.88   48.96</time>
   <time name="total">   49.76   49.86</time>
   <energy>
    <i name="e_fr_energy">   -305.77201004 </i>
    <i name="e_wo_entrp">   -305.75908064 </i>
    <i name="e_0_energy">   -305.76770024 </i>
   </energy>
  </scstep>
  <scstep>
   <time name="dav">   48.13   48.21</time>
   <time name="total">   49.02   49.11</time>
   <energy>
    <i name="e_fr_energy">   -305.44808599 </i>
    <i name="e_wo_entrp">   -305.43090733 </i>
    <i name="e_0_energy">   -305.44235977 </i>
   </energy>
  </scstep>
  <scstep>
   <time name="dav">   49.38   49.46</time>
   <time name="total">   50.27   50.36</time>
   <energy>
    <i name="e_fr_energy">   -305.20662059 </i>
    <i name="e_wo_entrp">   -305.19318359 </i>
    <i name="e_0_energy">   -305.20214159 </i>
   </energy>
  </scstep>
  <scstep>
   <time name="dav">   46.87   46.95</time>
   <time name="total">   47.76   47.84</time>
   <energy>
    <i name="e_fr_energy">   -305.23411472 </i>
    <i name="e_wo_entrp">   -305.21507789 </i>
    <i name="e_0_energy">   -305.22776911 </i>
   </energy>
  </scstep>
  <scstep>
   <time name="dav">   47.30   47.38</time>
   <time name="total">   48.18   48.28</time>
   <energy>
    <i name="e_fr_energy">   -305.14569861 </i>
    <i name="e_wo_entrp">   -305.13157318 </i>
    <i name="e_0_energy">   -305.14099014 </i>
   </energy>
  </scstep>
  <scstep>
   <time name="dav">   47.63   47.71</time>
   <time name="total">   48.52   48.60</time>
   <energy>
    <i name="e_fr_energy">   -305.20772505 </i>
    <i name="e_wo_entrp">   -305.18539228 </i>
    <i name="e_0_energy">   -305.20028080 </i>
   </energy>
  </scstep>
  <scstep>
   <time name="dav">   46.47   46.54</time>
   <time name="total">   47.36   47.44</time>
   <energy>
    <i name="e_fr_energy">   -305.02230982 </i>
    <i name="e_wo_entrp">   -305.00393571 </i>
    <i name="e_0_energy">   -305.01618512 </i>
   </energy>
  </scstep>
  <scstep>
   <time name="dav">   48.63   48.71</time>
   <time name="total">   49.52   49.60</time>
   <energy>
    <i name="e_fr_energy">   -304.94864685 </i>
    <i name="e_wo_entrp">   -304.92777898 </i>
    <i name="e_0_energy">   -304.94169089 </i>
   </energy>
  </scstep>
  <scstep>
   <time name="dav">   47.55   47.64</time>
   <time name="total">   48.44   48.53</time>
   <energy>
    <i name="e_fr_energy">   -304.93087244 </i>
    <i name="e_wo_entrp">   -304.90971933 </i>
    <i name="e_0_energy">   -304.92382140 </i>
   </energy>
  </scstep>
  <scstep>
   <time name="dav">   45.90   45.97</time>
   <time name="total">   46.79   46.86</time>
   <energy>
    <i name="e_fr_energy">   -304.92596235 </i>
    <i name="e_wo_entrp">   -304.90407680 </i>
    <i name="e_0_energy">   -304.91866717 </i>
   </energy>
  </scstep>
  <scstep>
   <time name="dav">   47.18   47.26</time>
   <time name="total">   48.06   48.15</time>
   <energy>
    <i name="e_fr_energy">   -304.91847071 </i>
    <i name="e_wo_entrp">   -304.89675337 </i>
    <i name="e_0_energy">   -304.91123160 </i>
   </energy>
  </scstep>
  <scstep>
   <time name="dav">   46.94   47.02</time>
   <time name="total">   47.82   47.91</time>
   <energy>
    <i name="e_fr_energy">   -304.91743470 </i>
    <i name="e_wo_entrp">   -304.89591951 </i>
    <i name="e_0_energy">   -304.91026297 </i>
   </energy>
  </scstep>
  <scstep>
   <time name="dav">   46.19   46.24</time>
   <time name="total">   47.06   47.13</time>
   <energy>
    <i name="e_fr_energy">   -304.91648166 </i>
    <i name="e_wo_entrp">   -304.89474250 </i>
    <i name="e_0_energy">   -304.90923527 </i>
   </energy>
  </scstep>
  <scstep>
   <time name="dav">   46.65   46.71</time>
   <time name="total">   47.53   47.59</time>
   <energy>
    <i name="e_fr_energy">   -304.91631005 </i>
    <i name="e_wo_entrp">   -304.89454124 </i>
    <i name="e_0_energy">   -304.90905378 </i>
   </energy>
  </scstep>
  <scstep>
   <time name="dav">   41.66   41.71</time>
   <time name="total">   42.53   42.59</time>
   <energy>
    <i name="e_fr_energy">   -304.91622920 </i>
    <i name="e_wo_entrp">   -304.89439796 </i>
    <i name="e_0_energy">   -304.90895212 </i>
   </energy>
  </scstep>
  <scstep>
   <time name="dav">   33.99   34.03</time>
   <time name="total">   34.05   34.09</time>
   <energy>
    <i name="alphaZ">   1104.47950323 </i>
    <i name="ewald"> -10124.47161348 </i>
    <i name="hartreedc">  -2704.03240008 </i>
    <i name="XCdc">   -945.23961341 </i>
    <i name="pawpsdc">  17510.25677117 </i>
    <i name="pawaedc"> -16023.43242489 </i>
    <i name="eentropy">     -0.02178724 </i>
    <i name="bandstr">   -574.03103661 </i>
    <i name="atom">  11451.57642151 </i>
    <i name="e_fr_energy">   -304.91617982 </i>
    <i name="e_wo_entrp">   -304.89439258 </i>
    <i name="e_0_energy">   -304.90891741 </i>
   </energy>
  </scstep>
  <structure>
   <crystal>
    <varray name="basis" >
     <v>      -3.16000000      -3.16000000      -3.16000000 </v>
     <v>       1.58000000       1.58000000      -7.90000000 </v>
     <v>       7.90000000      -7.90000000      -1.58000000 </v>
    </varray>
    <i name="volume">    473.31744000 </i>
    <varray name="rec_basis" >
     <v>      -0.13713080      -0.12658228      -0.05274262 </v>
     <v>       0.04219409       0.06329114      -0.10548523 </v>
     <v>       0.06329114      -0.06329114       0.00000000 </v>
    </varray>
   </crystal>
   <varray name="positions" >
    <v>       0.96666667       0.93333333       0.40000000 </v>
    <v>       0.63333333       0.26666667       0.40000000 </v>
    <v>       0.50000000       0.00000000       0.00000000 </v>
    <v>       0.00000000       0.00000000       0.00000000 </v>
    <v>       0.03333333       0.06666667       0.60000000 </v>
    <v>       0.90000000       0.80000000       0.20000000 </v>
    <v>       0.80000000       0.60000000       0.40000000 </v>
    <v>       0.73333333       0.46666667       0.20000000 </v>
    <v>       0.66666667       0.33333333       0.00000000 </v>
    <v>       0.36666667       0.73333333       0.60000000 </v>
    <v>       0.13333333       0.26666667       0.40000000 </v>
    <v>       0.83333333       0.66666667       0.00000000 </v>
    <v>       0.93333333       0.86666667       0.80000000 </v>
    <v>       0.56666667       0.13333333       0.20000000 </v>
    <v>       0.40000000       0.80000000       0.20000000 </v>
    <v>       0.43333333       0.86666667       0.80000000 </v>
    <v>       0.30000000       0.60000000       0.40000000 </v>
    <v>       0.86666667       0.73333333       0.60000000 </v>
    <v>       0.46666667       0.93333333       0.40000000 </v>
    <v>       0.16666667       0.33333333       0.00000000 </v>
    <v>       0.26666667       0.53333333       0.80000000 </v>
    <v>       0.20000000       0.40000000       0.60000000 </v>
    <v>       0.06666667       0.13333333       0.20000000 </v>
    <v>       0.76666667       0.53333333       0.80000000 </v>
    <v>       0.70000000       0.40000000       0.60000000 </v>
    <v>       0.60000000       0.20000000       0.80000000 </v>
    <v>       0.53333333       0.06666667       0.60000000 </v>
    <v>       0.33333333       0.66666667       0.00000000 </v>
    <v>       0.23333333       0.46666667       0.20000000 </v>
   </varray>
  </structure>
  <varray name="forces" >
   <v>      -0.06841048       0.53341826       0.27708213 </v>
   <v>       0.39814511      -0.37862561       0.05934042 </v>
   <v>      -0.19679354       0.33165554      -0.32480799 </v>
   <v>      -0.15742876       0.42384310      -0.32882419 </v>
   <v>       0.28046948      -0.08628001      -0.64894408 </v>
   <v>       0.15900062      -0.75687898       0.20842417 </v>
   <v>      -0.53718298      -0.37751166       0.55335597 </v>
   <v>      -0.29758406       0.27791258       0.11597241 </v>
   <v>       0.25420658       0.65475650      -0.45593040 </v>
   <v>      -0.10786070      -0.53462861       0.26254791 </v>
   <v>       0.23264094       0.11577548      -0.59529755 </v>
   <v>      -0.10724507      -0.26433105       0.45549700 </v>
   <v>       0.39926858       0.48285715       0.26285772 </v>
   <v>      -0.33714217       0.67859399      -0.12803644 </v>
   <v>      -0.74567077       0.08498016       0.72571052 </v>
   <v>      -0.54681645       0.10699244       0.02872529 </v>
   <v>       0.36002759      -0.27266227      -0.17576991 </v>
   <v>       0.27618486       0.07632382       0.49953496 </v>
   <v>       0.76818730      -0.51498375       0.14065941 </v>
   <v>      -0.31125232       0.02079048      -0.17772797 </v>
   <v>      -0.51514791      -0.09857175      -0.82828011 </v>
   <v>       0.10728113      -0.54714655       0.75978473 </v>
   <v>       0.49399750      -0.00332844      -0.80601783 </v>
   <v>       0.17237772      -0.19208584       0.77280159 </v>
   <v>       0.72446735       0.53197126      -0.32360427 </v>
   <v>      -0.28394080       0.17650002      -0.23332929 </v>
   <v>      -0.32127670      -0.50930724      -0.61603269 </v>
   <v>      -0.33924522      -0.23075821       0.61885618 </v>
   <v>       0.24674319       0.27072920      -0.09854768 </v>
  </varray>
  <varray name="stress" >
   <v>     -19.03236923       0.70055424       3.54997538 </v>
   <v>       0.70055432     -22.47792474       1.31673200 </v>
   <v>       3.54997538       1.31673199     -20.36766473 </v>
  </varray>
  <energy>
   <i name="e_fr_energy">   -304.91617982 </i>
   <i name="e_wo_entrp">   -304.90891741 </i>
   <i name="e_0_energy">     -0.02178724 </i>
  </energy>
  <time name="totalsc"> 1304.24 1306.61</time>
 </calculation>
 <calculation>
  <scstep>
   <time name="dav">   32.44   32.48</time>
   <time name="total">   33.33   33.37</time>
   <energy>
    <i name="alphaZ">   1138.76390770 </i>
    <i name="ewald"> -10277.43604092 </i>
    <i name="hartreedc">  -2684.77303206 </i>
    <i name="XCdc">   -941.85769942 </i>
    <i name="pawpsdc">  17507.72089605 </i>
    <i name="pawaedc"> -16020.91678841 </i>
    <i name="eentropy">     -0.01867510 </i>
    <i name="bandstr">   -478.77424294 </i>
    <i name="atom">  11451.57642151 </i>
    <i name="e_fr_energy">   -305.71525360 </i>
    <i name="e_wo_entrp">   -305.69657850 </i>
    <i name="e_0_energy">   -305.70902857 </i>
   </energy>
  </scstep>
  <scstep>
   <time name="dav">   51.35   51.42</time>
   <time name="total">   52.23   52.30</time>
   <energy>
    <i name="e_fr_energy">   -307.20650662 </i>
    <i name="e_wo_entrp">   -307.20555186 </i>
    <i name="e_0_energy">   -307.20618836 </i>
   </energy>
  </scstep>
  <scstep>
   <time name="dav">   51.18   51.25</time>
   <time name="total">   52.07   52.14</time>
   <energy>
    <i name="e_fr_energy">   -306.12530994 </i>
    <i name="e_wo_entrp">   -306.10646554 </i>
    <i name="e_0_energy">   -306.11902847 </i>
   </energy>
  </scstep>
  <scstep>
   <time name="dav">   48.19   48.25</time>
   <time name="total">   49.07   49.14</time>
   <energy>
    <i name="e_fr_energy">   -306.14435352 </i>
    <i name="e_wo_entrp">   -306.12511678 </i>
    <i name="e_0_energy">   -306.13794127 </i>
   </energy>
  </scstep>
  <scstep>
   <time name="dav">   50.04   50.10</time>
   <time name="total">   50.92   50.99</time>
   <energy>
    <i name="e_fr_energy">   -305.54854657 </i>
    <i name="e_wo_entrp">   -305.53085155 </i>
    <i name="e_0_energy">   -305.54264823 </i>
   </energy>
  </scstep>
  <scstep>
   <time name="dav">   50.55   50.61</time>
   <time name="total">   51.43   51.50</time>
   <energy>
    <i name="e_fr_energy">   -305.52122322 </i>
    <i name="e_wo_entrp">   -305.50333194 </i>
    <i name="e_0_energy">   -305.51525946 </i>
   </energy>
  </scstep>
  <scstep>
   <time name="dav">   51.64   51.70</time>
   <time name="total">   52.52   52.59</time>
   <energy>
    <i name="e_fr_energy">   -305.49199022 </i>
    <i name="e_wo_entrp">   -305.47369817 </i>
    <i name="e_0_energy">   -305.48589287 </i>
   </energy>
  </scstep>
  <scstep>
   <time name="dav">   49.75   49.81</time>
   <time name="total">   50.64   50.70</time>
   <energy>
    <i name="e_fr_energy">   -305.47415075 </i>
    <i name="e_wo_entrp">   -305.45403410 </i>
    <i name="e_0_energy">   -305.46744520 </i>
   </energy>
  </scstep>
  <scstep>
   <time name="dav">   50.42   50.48</time>
   <time name="total">   51.30   51.38</time>
   <energy>
    <i name="e_fr_energy">   -305.45400939 </i>
    <i name="e_wo_entrp">   -305.43491046 </i>
    <i name="e_0_energy">   -305.44764308 </i>
   </energy>
  </scstep>
  <scstep>
   <time name="dav">   50.37   50.44</time>
   <time name="total">   51.26   51.33</time>
   <energy>
    <i name="e_fr_energy">   -305.45156450 </i>
    <i name="e_wo_entrp">   -305.43112429 </i>
    <i name="e_0_energy">   -305.44475110 </i>
   </energy>
  </scstep>
  <scstep>
   <time name="dav">   46.71   46.77</time>
   <time name="total">   47.61   47.67</time>
   <energy>
    <i name="e_fr_energy">   -305.45369734 </i>
    <i name="e_wo_entrp">   -305.43423527 </i>
    <i name="e_0_energy">   -305.44720998 </i>
   </energy>
  </scstep>
  <scstep>
   <time name="dav">   48.97   49.03</time>
   <time name="total">   49.86   49.92</time>
   <energy>
    <i name="e_fr_energy">   -305.45357622 </i>
    <i name="e_wo_entrp">   -305.43345760 </i>
    <i name="e_0_energy">   -305.44687001 </i>
   </energy>
  </scstep>
  <scstep>
   <time name="dav">   46.66   46.72</time>
   <time name="total">   47.55   47.62</time>
   <energy>
    <i name="e_fr_energy">   -305.45558466 </i>
    <i name="e_wo_entrp">   -305.43595011 </i>
    <i name="e_0_energy">   -305.44903981 </i>
   </energy>
  </scstep>
  <scstep>
   <time name="dav">   49.02   49.08</time>
   <time name="total">   49.90   49.97</time>
   <energy>
    <i name="e_fr_energy">   -305.45362419 </i>
    <i name="e_wo_entrp">   -305.43353256 </i>
    <i name="e_0_energy">   -305.44692698 </i>
   </energy>
  </scstep>
  <scstep>
   <time name="dav">   47.42   47.48</time>
   <time name="total">   48.30   48.37</time>
   <energy>
    <i name="e_fr_energy">   -305.45375061 </i>
    <i name="e_wo_entrp">   -305.43386797 </i>
    <i name="e_0_energy">   -305.44712306 </i>
   </energy>
  </scstep>
  <scstep>
   <time name="dav">   44.04   44.10</time>
   <time name="total">   44.92   44.99</time>
   <energy>
    <i name="e_fr_energy">   -305.45350020 </i>
    <i name="e_wo_entrp">   -305.43348667 </i>
    <i name="e_0_energy">   -305.44682903 </i>
   </energy>
  </scstep>
  <scstep>
   <time name="dav">   35.67   35.72</time>
   <time name="total">   35.73   35.78</time>
   <energy>
    <i name="alphaZ">   1138.76390770 </i>
    <i name="ewald"> -10277.43604092 </i>
    <i name="hartreedc">  -2633.62771868 </i>
    <i name="XCdc">   -943.30542477 </i>
    <i name="pawpsdc">  18186.55079600 </i>
    <i name="pawaedc"> -16701.02810604 </i>
    <i name="eentropy">     -0.01997376 </i>
    <i name="bandstr">   -526.92729038 </i>
    <i name="atom">  11451.57642151 </i>
    <i name="e_fr_energy">   -305.45342935 </i>
    <i name="e_wo_entrp">   -305.43345558 </i>
    <i name="e_0_energy">   -305.44677142 </i>
   </energy>
  </scstep>
  <structure>
   <crystal>
    <varray name="basis" >
     <v>      -3.13704429      -3.12822531      -3.13592753 </v>
     <v>       1.55198316       1.55797813      -7.81714531 </v>
     <v>       7.82063206      -7.81103389      -1.55551446 </v>
    </varray>
    <i name="volume">    459.06742167 </i>
    <varray name="rec_basis" >
     <v>      -0.13828785      -0.12791342      -0.05294858 </v>
     <v>       0.04275807       0.06405302      -0.10666899 </v>
     <v>       0.06391109      -0.06402031      -0.00007078 </v>
    </varray>
   </crystal>
   <varray name="positions" >
    <v>       0.96315682       0.93341274       0.39816242 </v>
    <v>       0.63286053       0.26601907       0.40237174 </v>
    <v>       0.50010304       0.00226498      -0.00161353 </v>
    <v>      -0.00071011       0.00264703      -0.00177482 </v>
    <v>       0.03365595       0.07027654       0.60111981 </v>
    <v>       0.90303981       0.79695200       0.20279648 </v>
    <v>       0.80445112       0.59493790       0.39951247 </v>
    <v>       0.73330981       0.46631931       0.19824282 </v>
    <v>       0.66214666       0.33817015      -0.00122301 </v>
    <v>       0.36997699       0.73014530       0.60130306 </v>
    <v>       0.13260198       0.27052313       0.40035683 </v>
    <v>       0.83449801       0.66332330       0.00047964 </v>
    <v>       0.92707447       0.86761607       0.79974478 </v>
    <v>       0.56507889       0.13537059       0.19689862 </v>
    <v>       0.40256755       0.79504856       0.19746375 </v>
    <v>       0.43622437       0.86573410       0.79800370 </v>
    <v>       0.29973051       0.60079480       0.40193181 </v>
    <v>       0.86310243       0.73158648       0.60061024 </v>
    <v>       0.46437162       0.93260880       0.40391795 </v>
    <v>       0.16905103       0.33366768      -0.00101384 </v>
    <v>       0.27278412       0.53619877       0.79872805 </v>
    <v>       0.20069829       0.39468130       0.60199819 </v>
    <v>       0.06546980       0.13843046       0.20151850 </v>
    <v>       0.76473295       0.52916501       0.80111283 </v>
    <v>       0.69278207       0.40474576       0.60058775 </v>
    <v>       0.60139429       0.20114832       0.79859412 </v>
    <v>       0.54013638       0.06759253       0.60057412 </v>
    <v>       0.33541214       0.66212225      -0.00033125 </v>
    <v>       0.23029848       0.46849705       0.19992676 </v>
   </varray>
  </structure>
  <varray name="forces" >
   <v>       0.10400409       0.20564621       0.11396522 </v>
   <v>       0.13025110      -0.15148131       0.10359876 </v>
   <v>      -0.18228409       0.31788332      -0.08986204 </v>
   <v>      -0.17708768       0.33399110      -0.37217397 </v>
   <v>       0.31024093      -0.19251871      -0.61377233 </v>
   <v>      -0.08426546      -0.19971305       0.17991609 </v>
   <v>      -0.11853136      -0.25317349       0.22039780 </v>
   <v>      -0.11101700       0.03088397       0.19404274 </v>
   <v>       0.00337560       0.54382323      -0.30131112 </v>
   <v>      -0.09136575      -0.33524154       0.19669559 </v>
   <v>       0.19081910      -0.00961806      -0.22413985 </v>
   <v>      -0.12701158      -0.10905987       0.05082409 </v>
   <v>       0.03646484       0.26549569      -0.00029056 </v>
   <v>      -0.04892083       0.30268726      -0.06328499 </v>
   <v>      -0.29820745       0.08224555       0.22246264 </v>
   <v>      -0.05437485       0.32991778       0.10814403 </v>
   <v>       0.21157842      -0.33401305      -0.06290083 </v>
   <v>       0.14721052       0.04597304       0.34590384 </v>
   <v>       0.43968851      -0.27371340       0.15533594 </v>
   <v>      -0.35776033       0.16701656      -0.09278415 </v>
   <v>      -0.40023182      -0.08986648      -0.49318459 </v>
   <v>       0.34363531      -0.54869922       0.71630649 </v>
   <v>       0.26623542       0.05071620      -0.49328352 </v>
   <v>      -0.08677534      -0.30754044       0.71329244 </v>
   <v>       0.61158339       0.27253497      -0.23655193 </v>
   <v>      -0.27879254       0.25359115      -0.27937000 </v>
   <v>      -0.16826120      -0.45188524      -0.47886217 </v>
   <v>      -0.33109008      -0.15550544       0.54384596 </v>
   <v>       0.12089014       0.20962328      -0.06295957 </v>
  </varray>
  <varray name="stress" >
   <v>      35.82249536       1.25412877       2.75483644 </v>
   <v>       1.25412869      33.64405700       1.99138701 </v>
   <v>       2.75483629       1.99138711      36.01164903 </v>
  </varray>
  <energy>
   <i name="e_fr_energy">   -305.45342935 </i>
   <i name="e_wo_entrp">   -305.44677142 </i>
   <i name="e_0_energy">     -0.01997376 </i>
  </energy>
  <time name="totalsc">  843.54  844.71</time>
 </calculation>
 <calculation>
  <scstep>
   <time name="dav">   32.71   32.76</time>
   <time name="total">   33.59   33.64</time>
   <energy>
    <i name="alphaZ">   1144.76993833 </i>
    <i name="ewald"> -10303.21583579 </i>
    <i name="hartreedc">  -2630.88136975 </i>
    <i name="XCdc">   -942.72245596 </i>
    <i name="pawpsdc">  18186.15385505 </i>
    <i name="pawaedc"> -16700.53977394 </i>
    <i name="eentropy">     -0.01973505 </i>
    <i name="bandstr">   -510.59099290 </i>
    <i name="atom">  11451.57642151 </i>
    <i name="e_fr_energy">   -305.46994849 </i>
    <i name="e_wo_entrp">   -305.45021345 </i>
    <i name="e_0_energy">   -305.46337014 </i>
   </energy>
  </scstep>
  <scstep>
   <time name="dav">   50.92   50.98</time>
   <time name="total">   51.79   51.86</time>
   <energy>
    <i name="e_fr_energy">   -305.51449163 </i>
    <i name="e_wo_entrp">   -305.49811781 </i>
    <i name="e_0_energy">   -305.50903369 </i>
   </energy>
  </scstep>
  <scstep>
   <time name="dav">   51.50   51.57</time>
   <time name="total">   52.38   52.46</time>
   <energy>
    <i name="e_fr_energy">   -305.48348554 </i>
    <i name="e_wo_entrp">   -305.46372984 </i>
    <i name="e_0_energy">   -305.47690031 </i>
   </energy>
  </scstep>
  <scstep>
   <time name="dav">   49.75   49.80</time>
   <time name="total">   50.62   50.68</time>
   <energy>
    <i name="e_fr_energy">   -305.48526059 </i>
    <i name="e_wo_entrp">   -305.46495363 </i>
    <i name="e_0_energy">   -305.47849160 </i>
   </energy>
  </scstep>
  <scstep>
   <time name="dav">   50.01   50.07</time>
   <time name="total">   50.89   50.95</time>
   <energy>
    <i name="e_fr_energy">   -305.46758661 </i>
    <i name="e_wo_entrp">   -305.44820548 </i>
    <i name="e_0_energy">   -305.46112623 </i>
   </energy>
  </scstep>
  <scstep>
   <time name="dav">   51.28   51.34</time>
   <time name="total">   52.16   52.21</time>
   <energy>
    <i name="e_fr_energy">   -305.46647773 </i>
    <i name="e_wo_entrp">   -305.44715448 </i>
    <i name="e_0_energy">   -305.46003665 </i>
   </energy>
  </scstep>
  <scstep>
   <time name="dav">   49.75   49.81</time>
   <time name="total">   50.63   50.70</time>
   <energy>
    <i name="e_fr_energy">   -305.46600098 </i>
    <i name="e_wo_entrp">   -305.44648324 </i>
    <i name="e_0_energy">   -305.45949506 </i>
   </energy>
  </scstep>
  <scstep>
   <time name="dav">   44.51   44.56</time>
   <time name="total">   45.39   45.44</time>
   <energy>
    <i name="e_fr_energy">   -305.46513123 </i>
    <i name="e_wo_entrp">   -305.44557331 </i>
    <i name="e_0_energy">   -305.45861193 </i>
   </energy>
  </scstep>
  <scstep>
   <time name="dav">   45.80   45.85</time>
   <time name="total">   46.68   46.74</time>
   <energy>
    <i name="e_fr_energy">   -305.46469772 </i>
    <i name="e_wo_entrp">   -305.44527822 </i>
    <i name="e_0_energy">   -305.45822455 </i>
   </energy>
  </scstep>
  <scstep>
   <time name="dav">   44.69   44.74</time>
   <time name="total">   45.56   45.61</time>
   <energy>
    <i name="e_fr_energy">   -305.46460381 </i>
    <i name="e_wo_entrp">   -305.44499798 </i>
    <i name="e_0_energy">   -305.45806853 </i>
   </energy>
  </scstep>
  <scstep>
   <time name="dav">   40.07   40.11</time>
   <time name="total">   40.95   41.01</time>
   <energy>
    <i name="e_fr_energy">   -305.46470692 </i>
    <i name="e_wo_entrp">   -305.44524671 </i>
    <i name="e_0_energy">   -305.45822019 </i>
   </energy>
  </scstep>
  <scstep>
   <time name="dav">   36.85   36.90</time>
   <time name="total">   37.72   37.78</time>
   <energy>
    <i name="e_fr_energy">   -305.46470303 </i>
    <i name="e_wo_entrp">   -305.44509937 </i>
    <i name="e_0_energy">   -305.45816847 </i>
   </energy>
  </scstep>
  <scstep>
   <time name="dav">   37.08   37.12</time>
   <time name="total">   37.97   38.02</time>
   <energy>
    <i name="e_fr_energy">   -305.46472396 </i>
    <i name="e_wo_entrp">   -305.44523168 </i>
    <i name="e_0_energy">   -305.45822653 </i>
   </energy>
  </scstep>
  <scstep>
   <time name="dav">   31.46   31.49</time>
   <time name="total">   31.50   31.54</time>
   <energy>
    <i name="alphaZ">   1144.76993833 </i>
    <i name="ewald"> -10303.21583579 </i>
    <i name="hartreedc">  -2622.36050346 </i>
    <i name="XCdc">   -942.96444362 </i>
    <i name="pawpsdc">  18309.30632154 </i>
    <i name="pawaedc"> -16823.88946999 </i>
    <i name="eentropy">     -0.01957031 </i>
    <i name="bandstr">   -518.66754200 </i>
    <i name="atom">  11451.57642151 </i>
    <i name="e_fr_energy">   -305.46468379 </i>
    <i name="e_wo_entrp">   -305.44511348 </i>
    <i name="e_0_energy">   -305.45816035 </i>
   </energy>
  </scstep>
  <structure>
   <crystal>
    <varray name="basis" >
     <v>      -3.13311830      -3.12279106      -3.13181054 </v>
     <v>       1.54719160       1.55421185      -7.80297513 </v>
     <v>       7.80705820      -7.79581851      -1.55132684 </v>
    </varray>
    <i name="volume">    456.65892639 </i>
    <varray name="rec_basis" >
     <v>      -0.13848775      -0.12814396      -0.05298363 </v>
     <v>       0.04285596       0.06418514      -0.10687415 </v>
     <v>       0.06401837      -0.06414668      -0.00008316 </v>
    </varray>
   </crystal>
   <varray name="positions" >
    <v>       0.96255087       0.93342665       0.39784442 </v>
    <v>       0.63277993       0.26590721       0.40278164 </v>
    <v>       0.50011946       0.00265669      -0.00189230 </v>
    <v>      -0.00083416       0.00310488      -0.00208152 </v>
    <v>       0.03371050       0.07090102       0.60131366 </v>
    <v>       0.90356613       0.79642467       0.20328000 </v>
    <v>       0.80522070       0.59406188       0.39942829 </v>
    <v>       0.73330538       0.46625913       0.19793903 </v>
    <v>       0.66136479       0.33900712      -0.00143455 </v>
    <v>       0.37054959       0.72959364       0.60152843 </v>
    <v>       0.13247442       0.27119030       0.40041870 </v>
    <v>       0.83470035       0.66274490       0.00056244 </v>
    <v>       0.92599449       0.86778077       0.79970011 </v>
    <v>       0.56480332       0.13572296       0.19636248 </v>
    <v>       0.40301162       0.79419172       0.19702524 </v>
    <v>       0.43672280       0.86557245       0.79765883 </v>
    <v>       0.29968428       0.60093241       0.40226578 </v>
    <v>       0.86248854       0.73128462       0.60071527 </v>
    <v>       0.46397719       0.93248385       0.40459496 </v>
    <v>       0.16946186       0.33372528      -0.00118884 </v>
    <v>       0.27383776       0.53669390       0.79850896 </v>
    <v>       0.20082141       0.39376131       0.60234332 </v>
    <v>       0.06526179       0.13931234       0.20178122 </v>
    <v>       0.76440139       0.52844417       0.80130474 </v>
    <v>       0.69153542       0.40556728       0.60068897 </v>
    <v>       0.60163392       0.20134678       0.79835130 </v>
    <v>       0.54130958       0.06775220       0.60067409 </v>
    <v>       0.33577239       0.66133597      -0.00038861 </v>
    <v>       0.22977429       0.46881391       0.19991393 </v>
   </varray>
  </structure>
  <varray name="forces" >
   <v>       0.13258177       0.14458612       0.08713326 </v>
   <v>       0.08821711      -0.10772380       0.11058353 </v>
   <v>      -0.18278548       0.31823754      -0.04489042 </v>
   <v>      -0.18267479       0.32271835      -0.38017126 </v>
   <v>       0.32112417      -0.21646451      -0.60874103 </v>
   <v>      -0.13022069      -0.09406556       0.17696104 </v>
   <v>      -0.03424588      -0.22898808       0.15582515 </v>
   <v>      -0.07460155      -0.01814811       0.20641024 </v>
   <v>      -0.04827124       0.51734008      -0.26141132 </v>
   <v>      -0.08654685      -0.29166086       0.18114801 </v>
   <v>       0.17567252      -0.03277165      -0.15247240 </v>
   <v>      -0.12920254      -0.07509906      -0.02867112 </v>
   <v>      -0.03088763       0.20931158      -0.03839939 </v>
   <v>       0.00571810       0.24251592      -0.07390712 </v>
   <v>      -0.22384600       0.07382605       0.13658273 </v>
   <v>       0.03179572       0.36075639       0.12661031 </v>
   <v>       0.18689695      -0.33216697      -0.03928343 </v>
   <v>       0.11723515       0.03214147       0.31279721 </v>
   <v>       0.37876198      -0.22599586       0.15699363 </v>
   <v>      -0.35788035       0.19486233      -0.07673311 </v>
   <v>      -0.37682472      -0.08069062      -0.41459481 </v>
   <v>       0.38723520      -0.54864733       0.70611627 </v>
   <v>       0.22569913       0.06030874      -0.43913706 </v>
   <v>      -0.14021780      -0.32759380       0.69552196 </v>
   <v>       0.58609595       0.21778781      -0.21909920 </v>
   <v>      -0.27778456       0.26913219      -0.29401084 </v>
   <v>      -0.13279358      -0.44196839      -0.45065126 </v>
   <v>      -0.32320383      -0.13447110       0.52409333 </v>
   <v>       0.09495374       0.19293114      -0.05460291 </v>
  </varray>
  <varray name="stress" >
   <v>      45.75447631       1.35601430       2.74186039 </v>
   <v>       1.35601434      43.94410290       2.28128869 </v>
   <v>       2.74186031       2.28128869      46.35358146 </v>
  </varray>
  <energy>
   <i name="e_fr_energy">   -305.46468379 </i>
   <i name="e_wo_entrp">   -305.45816035 </i>
   <i name="e_0_energy">     -0.01957031 </i>
  </energy>
  <time name="totalsc">  651.91  652.77</time>
 </calculation>
 <calculation>
  <scstep>
   <time name="dav">   32.24   32.28</time>
   <time name="total">   33.11   33.17</time>
   <energy>
    <i name="alphaZ">   1133.73971158 </i>
    <i name="ewald"> -10302.41361111 </i>
    <i name="hartreedc">  -2582.52318704 </i>
    <i name="XCdc">   -944.15808010 </i>
    <i name="pawpsdc">  18309.13960556 </i>
    <i name="pawaedc"> -16823.70245095 </i>
    <i name="eentropy">     -0.01903611 </i>
    <i name="bandstr">   -547.33655491 </i>
    <i name="atom">  11451.57642151 </i>
    <i name="e_fr_energy">   -305.69718157 </i>
    <i name="e_wo_entrp">   -305.67814547 </i>
    <i name="e_0_energy">   -305.69083620 </i>
   </energy>
  </scstep>
  <scstep>
   <time name="dav">   49.80   49.87</time>
   <time name="total">   50.67   50.75</time>
   <energy>
    <i name="e_fr_energy">   -306.22148570 </i>
    <i name="e_wo_entrp">   -306.20945759 </i>
    <i name="e_0_energy">   -306.21747633 </i>
   </energy>
  </scstep>
  <scstep>
   <time name="dav">   50.90   50.95</time>
   <time name="total">   51.78   51.84</time>
   <energy>
    <i name="e_fr_energy">   -305.86913591 </i>
    <i name="e_wo_entrp">   -305.85190748 </i>
    <i name="e_0_energy">   -305.86339310 </i>
   </energy>
  </scstep>
  <scstep>
   <time name="dav">   48.98   49.04</time>
   <time name="total">   49.85   49.91</time>
   <energy>
    <i name="e_fr_energy">   -305.88232123 </i>
    <i name="e_wo_entrp">   -305.86400820 </i>
    <i name="e_0_energy">   -305.87621689 </i>
   </energy>
  </scstep>
  <scstep>
   <time name="dav">   48.03   48.08</time>
   <time name="total">   48.90   48.96</time>
   <energy>
    <i name="e_fr_energy">   -305.80734668 </i>
    <i name="e_wo_entrp">   -305.79199709 </i>
    <i name="e_0_energy">   -305.80223015 </i>
   </energy>
  </scstep>
  <scstep>
   <time name="dav">   47.61   47.67</time>
   <time name="total">   48.48   48.53</time>
   <energy>
    <i name="e_fr_energy">   -305.81024582 </i>
    <i name="e_wo_entrp">   -305.79280974 </i>
    <i name="e_0_energy">   -305.80443380 </i>
   </energy>
  </scstep>
  <scstep>
   <time name="dav">   48.00   48.06</time>
   <time name="total">   48.88   48.94</time>
   <energy>
    <i name="e_fr_energy">   -305.80247796 </i>
    <i name="e_wo_entrp">   -305.78628672 </i>
    <i name="e_0_energy">   -305.79708088 </i>
   </energy>
  </scstep>
  <scstep>
   <time name="dav">   51.51   51.57</time>
   <time name="total">   52.38   52.43</time>
   <energy>
    <i name="e_fr_energy">   -305.79433673 </i>
    <i name="e_wo_entrp">   -305.77782477 </i>
    <i name="e_0_energy">   -305.78883274 </i>
   </energy>
  </scstep>
  <scstep>
   <time name="dav">   50.08   50.14</time>
   <time name="total">   50.95   51.02</time>
   <energy>
    <i name="e_fr_energy">   -305.79279974 </i>
    <i name="e_wo_entrp">   -305.77622571 </i>
    <i name="e_0_energy">   -305.78727507 </i>
   </energy>
  </scstep>
  <scstep>
   <time name="dav">   46.42   46.48</time>
   <time name="total">   47.29   47.35</time>
   <energy>
    <i name="e_fr_energy">   -305.79240213 </i>
    <i name="e_wo_entrp">   -305.77572918 </i>
    <i name="e_0_energy">   -305.78684448 </i>
   </energy>
  </scstep>
  <scstep>
   <time name="dav">   43.54   43.59</time>
   <time name="total">   44.42   44.48</time>
   <energy>
    <i name="e_fr_energy">   -305.79230904 </i>
    <i name="e_wo_entrp">   -305.77567209 </i>
    <i name="e_0_energy">   -305.78676339 </i>
   </energy>
  </scstep>
  <scstep>
   <time name="dav">   45.61   45.66</time>
   <time name="total">   46.47   46.53</time>
   <energy>
    <i name="e_fr_energy">   -305.79240492 </i>
    <i name="e_wo_entrp">   -305.77583280 </i>
    <i name="e_0_energy">   -305.78688088 </i>
   </energy>
  </scstep>
  <scstep>
   <time name="dav">   42.65   42.70</time>
   <time name="total">   43.53   43.58</time>
   <energy>
    <i name="e_fr_energy">   -305.79263463 </i>
    <i name="e_wo_entrp">   -305.77616030 </i>
    <i name="e_0_energy">   -305.78714319 </i>
   </energy>
  </scstep>
  <scstep>
   <time name="dav">   43.37   43.41</time>
   <time name="total">   44.23   44.28</time>
   <energy>
    <i name="e_fr_energy">   -305.79237709 </i>
    <i name="e_wo_entrp">   -305.77558894 </i>
    <i name="e_0_energy">   -305.78678104 </i>
   </energy>
  </scstep>
  <scstep>
   <time name="dav">   41.01   41.08</time>
   <time name="total">   41.88   41.98</time>
   <energy>
    <i name="e_fr_energy">   -305.79236317 </i>
    <i name="e_wo_entrp">   -305.77584634 </i>
    <i name="e_0_energy">   -305.78685756 </i>
   </energy>
  </scstep>
  <scstep>
   <time name="dav">   30.83   30.87</time>
   <time name="total">   30.88   30.92</time>
   <energy>
    <i name="alphaZ">   1133.73971158 </i>
    <i name="ewald"> -10302.41361111 </i>
    <i name="hartreedc">  -2596.36851385 </i>
    <i name="XCdc">   -943.70205155 </i>
    <i name="pawpsdc">  18002.56269136 </i>
    <i name="pawaedc"> -16517.13952106 </i>
    <i name="eentropy">     -0.01659000 </i>
    <i name="bandstr">   -534.03083038 </i>
    <i name="atom">  11451.57642151 </i>
    <i name="e_fr_energy">   -305.79229351 </i>
    <i name="e_wo_entrp">   -305.77570352 </i>
    <i name="e_0_energy">   -305.78676351 </i>
   </energy>
  </scstep>
  <structure>
   <crystal>
    <varray name="basis" >
     <v>      -3.14982393      -3.13422615      -3.14883250 </v>
     <v>       1.54350541       1.55340598      -7.82696659 </v>
     <v>       7.83060458      -7.81386614      -1.55213958 </v>
    </varray>
    <i name="volume">    461.10179052 </i>
    <varray name="rec_basis" >
     <v>      -0.13786538      -0.12772482      -0.05253689 </v>
     <v>       0.04281007       0.06407745      -0.10660377 </v>
     <v>       0.06380999      -0.06400714      -0.00011984 </v>
    </varray>
   </crystal>
   <varray name="positions" >
    <v>       0.96018847       0.93356406       0.39697555 </v>
    <v>       0.63248825       0.26534212       0.40410526 </v>
    <v>       0.49993140       0.00401717      -0.00320946 </v>
    <v>      -0.00109585       0.00528217      -0.00347825 </v>
    <v>       0.03413108       0.07372809       0.60244493 </v>
    <v>       0.90534747       0.79446711       0.20453858 </v>
    <v>       0.80774605       0.59112645       0.39942290 </v>
    <v>       0.73332373       0.46562997       0.19705836 </v>
    <v>       0.65845372       0.34230195      -0.00264443 </v>
    <v>       0.37279206       0.72737151       0.60236686 </v>
    <v>       0.13191790       0.27336789       0.40082140 </v>
    <v>       0.83575825       0.66106111       0.00072389 </v>
    <v>       0.92272998       0.86851051       0.79930739 </v>
    <v>       0.56356773       0.13708950       0.19465289 </v>
    <v>       0.40445823       0.79154431       0.19550917 </v>
    <v>       0.43704756       0.86533214       0.79635851 </v>
    <v>       0.29989208       0.60114118       0.40375200 </v>
    <v>       0.86018643       0.73000738       0.60109316 </v>
    <v>       0.46235547       0.93188192       0.40709952 </v>
    <v>       0.17107232       0.33397499      -0.00228533 </v>
    <v>       0.27816236       0.53843107       0.79758593 </v>
    <v>       0.20078667       0.38962418       0.60433079 </v>
    <v>       0.06442421       0.14275265       0.20267522 </v>
    <v>       0.76394570       0.52471360       0.80203221 </v>
    <v>       0.68646128       0.40888154       0.60137772 </v>
    <v>       0.60262329       0.20253094       0.79707928 </v>
    <v>       0.54621089       0.06843063       0.60129488 </v>
    <v>       0.33734640       0.65783392      -0.00075700 </v>
    <v>       0.22774688       0.47005996       0.19976805 </v>
   </varray>
  </structure>
  <varray name="forces" >
   <v>       0.16520791      -0.04691791       0.01592912 </v>
   <v>      -0.07249115       0.05067612       0.07813128 </v>
   <v>      -0.19050215       0.16128895       0.09679075 </v>
   <v>      -0.10440215       0.23621414      -0.27469525 </v>
   <v>       0.21754239      -0.21235128      -0.43858284 </v>
   <v>      -0.21948544       0.21418253       0.11449431 </v>
[...]
       <r>    4.2349    1.0000 </r>
       <r>    4.3023    1.0000 </r>
       <r>    4.3593    1.0000 </r>
       <r>    4.4828    1.0000 </r>
       <r>    4.5383    1.0000 </r>
       <r>    4.6283    1.0000 </r>
       <r>    4.6797    1.0000 </r>
       <r>    4.7479    1.0000 </r>
       <r>    4.7984    1.0000 </r>
       <r>    4.8343    1.0000 </r>
       <r>    4.9116    1.0000 </r>
       <r>    4.9299    1.0000 </r>
       <r>    4.9732    1.0000 </r>
       <r>    5.0369    1.0000 </r>
       <r>    5.1120    1.0000 </r>
       <r>    5.1761    1.0000 </r>
       <r>    5.2210    1.0000 </r>
       <r>    5.2596    1.0000 </r>
       <r>    5.3120    1.0000 </r>
       <r>    5.3498    1.0000 </r>
       <r>    5.4187    1.0000 </r>
       <r>    5.4705    1.0000 </r>
       <r>    5.5396    1.0000 </r>
       <r>    5.6116    1.0000 </r>
       <r>    5.6504    1.0000 </r>
       <r>    5.7038    1.0000 </r>
       <r>    5.7351    1.0000 </r>
       <r>    5.7977    1.0000 </r>
       <r>    5.8297    1.0001 </r>
       <r>    5.9131    1.0008 </r>
       <r>    5.9966    1.0043 </r>
       <r>    6.0328    1.0081 </r>
       <r>    6.0743    1.0149 </r>
       <r>    6.0989    1.0201 </r>
       <r>    6.1200    1.0250 </r>
       <r>    6.1969    1.0351 </r>
       <r>    6.2280    1.0270 </r>
       <r>    6.2725    0.9893 </r>
       <r>    6.3319    0.8700 </r>
       <r>    6.3658    0.7636 </r>
       <r>    6.4504    0.4220 </r>
       <r>    6.4899    0.2656 </r>
       <r>    6.5707    0.0421 </r>
       <r>    6.6291   -0.0236 </r>
       <r>    6.7042   -0.0331 </r>
       <r>    6.8111   -0.0110 </r>
       <r>    6.8867   -0.0030 </r>
       <r>    6.9766   -0.0004 </r>
       <r>    7.0433   -0.0001 </r>
       <r>    7.1794   -0.0000 </r>
       <r>    7.2258   -0.0000 </r>
       <r>    7.2770   -0.0000 </r>
       <r>    7.4099   -0.0000 </r>
       <r>    7.5747   -0.0000 </r>
       <r>    7.6540   -0.0000 </r>
       <r>    7.7812   -0.0000 </r>
       <r>    7.8696   -0.0000 </r>
       <r>    8.0330   -0.0000 </r>
       <r>    8.0920   -0.0000 </r>
       <r>    8.1612   -0.0000 </r>
       <r>    8.2433   -0.0000 </r>
      </set>
     </set>
    </set>
   </array>
  </eigenvalues>
  <separator name="orbital magnetization" >
   <v name="MAGDIPOLOUT">      0.00000000      0.00000000      0.00000000</v>
  </separator>
  <dos>
   <i name="efermi">      6.43189330 </i>
   <total>
    <array>
     <dimension dim="1">gridpoints</dimension>
     <dimension dim="2">spin</dimension>
     <field>energy</field>
     <field>total</field>
     <field>integrated</field>
     <set>
      <set comment="spin 1">
       <r>   -50.5601     0.0000     0.0000 </r>
       <r>   -50.3544     0.0000     0.0000 </r>
       <r>   -50.1488     0.0000     0.0000 </r>
       <r>   -49.9431     0.0000     0.0000 </r>
       <r>   -49.7374     0.0000     0.0000 </r>
       <r>   -49.5317    -0.0000    -0.0000 </r>
       <r>   -49.3261    -0.0000    -0.0000 </r>
       <r>   -49.1204    -0.0000    -0.0000 </r>
       <r>   -48.9147    -0.0000    -0.0000 </r>
       <r>   -48.7090    -0.0000    -0.0000 </r>
       <r>   -48.5034    -0.0000    -0.0000 </r>
       <r>   -48.2977    -0.0039    -0.0008 </r>
       <r>   -48.0920    -0.2231    -0.0467 </r>
       <r>   -47.8863     0.1471    -0.0164 </r>
       <r>   -47.6807    11.6575     2.3812 </r>
       <r>   -47.4750    19.2072     6.3316 </r>
       <r>   -47.2693    16.0406     9.6308 </r>
       <r>   -47.0636     2.2568    10.0949 </r>
       <r>   -46.8580    -0.4427    10.0039 </r>
       <r>   -46.6523    -0.0189    10.0000 </r>
       <r>   -46.4466    -0.0001    10.0000 </r>
       <r>   -46.2409    -0.0000    10.0000 </r>
       <r>   -46.0353    -0.0000    10.0000 </r>
       <r>   -45.8296     0.0000    10.0000 </r>
       <r>   -45.6239     0.0000    10.0000 </r>
       <r>   -45.4183     0.0000    10.0000 </r>
       <r>   -45.2126     0.0000    10.0000 </r>
       <r>   -45.0069     0.0000    10.0000 </r>
       <r>   -44.8012     0.0000    10.0000 </r>
       <r>   -44.5956     0.0000    10.0000 </r>
       <r>   -44.3899     0.0000    10.0000 </r>
       <r>   -44.1842     0.0000    10.0000 </r>
       <r>   -43.9785     0.0000    10.0000 </r>
       <r>   -43.7729     0.0000    10.0000 </r>
       <r>   -43.5672     0.0000    10.0000 </r>
       <r>   -43.3615     0.0000    10.0000 </r>
       <r>   -43.1558     0.0000    10.0000 </r>
       <r>   -42.9502     0.0000    10.0000 </r>
       <r>   -42.7445     0.0000    10.0000 </r>
       <r>   -42.5388     0.0000    10.0000 </r>
       <r>   -42.3331     0.0000    10.0000 </r>
       <r>   -42.1275     0.0000    10.0000 </r>
       <r>   -41.9218     0.0000    10.0000 </r>
       <r>   -41.7161     0.0000    10.0000 </r>
       <r>   -41.5104     0.0000    10.0000 </r>
       <r>   -41.3048     0.0000    10.0000 </r>
       <r>   -41.0991     0.0000    10.0000 </r>
       <r>   -40.8934     0.0000    10.0000 </r>
       <r>   -40.6877     0.0000    10.0000 </r>
       <r>   -40.4821     0.0000    10.0000 </r>
       <r>   -40.2764     0.0000    10.0000 </r>
       <r>   -40.0707     0.0000    10.0000 </r>
       <r>   -39.8651     0.0000    10.0000 </r>
       <r>   -39.6594     0.0000    10.0000 </r>
       <r>   -39.4537     0.0000    10.0000 </r>
       <r>   -39.2480     0.0000    10.0000 </r>
       <r>   -39.0424     0.0000    10.0000 </r>
       <r>   -38.8367     0.0000    10.0000 </r>
       <r>   -38.6310     0.0000    10.0000 </r>
       <r>   -38.4253     0.0000    10.0000 </r>
       <r>   -38.2197     0.0000    10.0000 </r>
       <r>   -38.0140     0.0000    10.0000 </r>
       <r>   -37.8083     0.0000    10.0000 </r>
       <r>   -37.6026     0.0000    10.0000 </r>
       <r>   -37.3970     0.0000    10.0000 </r>
       <r>   -37.1913     0.0000    10.0000 </r>
       <r>   -36.9856     0.0000    10.0000 </r>
       <r>   -36.7799     0.0000    10.0000 </r>
       <r>   -36.5743     0.0000    10.0000 </r>
       <r>   -36.3686     0.0000    10.0000 </r>
       <r>   -36.1629     0.0000    10.0000 </r>
       <r>   -35.9572     0.0000    10.0000 </r>
       <r>   -35.7516     0.0000    10.0000 </r>
       <r>   -35.5459     0.0000    10.0000 </r>
       <r>   -35.3402     0.0000    10.0000 </r>
       <r>   -35.1346     0.0000    10.0000 </r>
       <r>   -34.9289     0.0000    10.0000 </r>
       <r>   -34.7232     0.0000    10.0000 </r>
       <r>   -34.5175     0.0000    10.0000 </r>
       <r>   -34.3119     0.0000    10.0000 </r>
       <r>   -34.1062     0.0000    10.0000 </r>
       <r>   -33.9005     0.0000    10.0000 </r>
       <r>   -33.6948     0.0000    10.0000 </r>
       <r>   -33.4892     0.0000    10.0000 </r>
       <r>   -33.2835     0.0000    10.0000 </r>
       <r>   -33.0778     0.0000    10.0000 </r>
       <r>   -32.8721     0.0000    10.0000 </r>
       <r>   -32.6665     0.0000    10.0000 </r>
       <r>   -32.4608     0.0000    10.0000 </r>
       <r>   -32.2551     0.0000    10.0000 </r>
       <r>   -32.0494     0.0000    10.0000 </r>
       <r>   -31.8438     0.0000    10.0000 </r>
       <r>   -31.6381     0.0000    10.0000 </r>
       <r>   -31.4324     0.0000    10.0000 </r>
       <r>   -31.2267     0.0000    10.0000 </r>
       <r>   -31.0211     0.0000    10.0000 </r>
       <r>   -30.8154     0.0000    10.0000 </r>
       <r>   -30.6097     0.0000    10.0000 </r>
       <r>   -30.4041     0.0000    10.0000 </r>
       <r>   -30.1984     0.0000    10.0000 </r>
       <r>   -29.9927     0.0000    10.0000 </r>
       <r>   -29.7870     0.0000    10.0000 </r>
       <r>   -29.5814     0.0000    10.0000 </r>
       <r>   -29.3757     0.0000    10.0000 </r>
       <r>   -29.1700     0.0000    10.0000 </r>
       <r>   -28.9643     0.0000    10.0000 </r>
       <r>   -28.7587     0.0000    10.0000 </r>
       <r>   -28.5530     0.0000    10.0000 </r>
       <r>   -28.3473     0.0000    10.0000 </r>
       <r>   -28.1416     0.0000    10.0000 </r>
       <r>   -27.9360     0.0000    10.0000 </r>
       <r>   -27.7303     0.0000    10.0000 </r>
       <r>   -27.5246     0.0000    10.0000 </r>
       <r>   -27.3189     0.0000    10.0000 </r>
       <r>   -27.1133     0.0000    10.0000 </r>
       <r>   -26.9076     0.0000    10.0000 </r>
       <r>   -26.7019     0.0000    10.0000 </r>
       <r>   -26.4962     0.0000    10.0000 </r>
       <r>   -26.2906     0.0000    10.0000 </r>
       <r>   -26.0849    -0.0000    10.0000 </r>
       <r>   -25.8792    -0.0000    10.0000 </r>
       <r>   -25.6735    -0.0000    10.0000 </r>
       <r>   -25.4679    -0.0000    10.0000 </r>
       <r>   -25.2622    -0.0000    10.0000 </r>
       <r>   -25.0565    -0.0000    10.0000 </r>
       <r>   -24.8509    -0.0045     9.9991 </r>
       <r>   -24.6452    -0.1141     9.9756 </r>
       <r>   -24.4395     0.3821    10.0542 </r>
       <r>   -24.2338     3.8244    10.8408 </r>
       <r>   -24.0282    13.3302    13.5825 </r>
       <r>   -23.8225    36.6159    21.1134 </r>
       <r>   -23.6168    39.5638    29.2507 </r>
       <r>   -23.4111    35.3331    36.5178 </r>
       <r>   -23.2055    12.3924    39.0666 </r>
       <r>   -22.9998     4.3130    39.9536 </r>
       <r>   -22.7941     0.3440    40.0244 </r>
       <r>   -22.5884    -0.1139    40.0010 </r>
       <r>   -22.3828    -0.0047    40.0000 </r>
       <r>   -22.1771    -0.0000    40.0000 </r>
       <r>   -21.9714    -0.0000    40.0000 </r>
       <r>   -21.7657    -0.0000    40.0000 </r>
       <r>   -21.5601     0.0000    40.0000 </r>
       <r>   -21.3544     0.0000    40.0000 </r>
       <r>   -21.1487     0.0000    40.0000 </r>
       <r>   -20.9430     0.0000    40.0000 </r>
       <r>   -20.7374     0.0000    40.0000 </r>
       <r>   -20.5317     0.0000    40.0000 </r>
       <r>   -20.3260     0.0000    40.0000 </r>
       <r>   -20.1204     0.0000    40.0000 </r>
       <r>   -19.9147     0.0000    40.0000 </r>
       <r>   -19.7090     0.0000    40.0000 </r>
       <r>   -19.5033     0.0000    40.0000 </r>
       <r>   -19.2977     0.0000    40.0000 </r>
       <r>   -19.0920     0.0000    40.0000 </r>
       <r>   -18.8863     0.0000    40.0000 </r>
       <r>   -18.6806     0.0000    40.0000 </r>
       <r>   -18.4750     0.0000    40.0000 </r>
       <r>   -18.2693     0.0000    40.0000 </r>
       <r>   -18.0636     0.0000    40.0000 </r>
       <r>   -17.8579     0.0000    40.0000 </r>
       <r>   -17.6523     0.0000    40.0000 </r>
       <r>   -17.4466     0.0000    40.0000 </r>
       <r>   -17.2409     0.0000    40.0000 </r>
       <r>   -17.0352     0.0000    40.0000 </r>
       <r>   -16.8296     0.0000    40.0000 </r>
       <r>   -16.6239     0.0000    40.0000 </r>
       <r>   -16.4182     0.0000    40.0000 </r>
       <r>   -16.2125     0.0000    40.0000 </r>
       <r>   -16.0069     0.0000    40.0000 </r>
       <r>   -15.8012     0.0000    40.0000 </r>
       <r>   -15.5955     0.0000    40.0000 </r>
       <r>   -15.3899     0.0000    40.0000 </r>
       <r>   -15.1842     0.0000    40.0000 </r>
       <r>   -14.9785     0.0000    40.0000 </r>
       <r>   -14.7728     0.0000    40.0000 </r>
       <r>   -14.5672     0.0000    40.0000 </r>
       <r>   -14.3615     0.0000    40.0000 </r>
       <r>   -14.1558     0.0000    40.0000 </r>
       <r>   -13.9501     0.0000    40.0000 </r>
       <r>   -13.7445     0.0000    40.0000 </r>
       <r>   -13.5388     0.0000    40.0000 </r>
       <r>   -13.3331     0.0000    40.0000 </r>
       <r>   -13.1274     0.0000    40.0000 </r>
       <r>   -12.9218     0.0000    40.0000 </r>
       <r>   -12.7161     0.0000    40.0000 </r>
       <r>   -12.5104     0.0000    40.0000 </r>
       <r>   -12.3047     0.0000    40.0000 </r>
       <r>   -12.0991     0.0000    40.0000 </r>
       <r>   -11.8934     0.0000    40.0000 </r>
       <r>   -11.6877     0.0000    40.0000 </r>
       <r>   -11.4820     0.0000    40.0000 </r>
       <r>   -11.2764     0.0000    40.0000 </r>
       <r>   -11.0707     0.0000    40.0000 </r>
       <r>   -10.8650     0.0000    40.0000 </r>
       <r>   -10.6593     0.0000    40.0000 </r>
       <r>   -10.4537     0.0000    40.0000 </r>
       <r>   -10.2480     0.0000    40.0000 </r>
       <r>   -10.0423     0.0000    40.0000 </r>
       <r>    -9.8367     0.0000    40.0000 </r>
       <r>    -9.6310     0.0000    40.0000 </r>
       <r>    -9.4253     0.0000    40.0000 </r>
       <r>    -9.2196     0.0000    40.0000 </r>
       <r>    -9.0140     0.0000    40.0000 </r>
       <r>    -8.8083     0.0000    40.0000 </r>
       <r>    -8.6026     0.0000    40.0000 </r>
       <r>    -8.3969     0.0000    40.0000 </r>
       <r>    -8.1913     0.0000    40.0000 </r>
       <r>    -7.9856     0.0000    40.0000 </r>
       <r>    -7.7799     0.0000    40.0000 </r>
       <r>    -7.5742     0.0000    40.0000 </r>
       <r>    -7.3686     0.0000    40.0000 </r>
       <r>    -7.1629     0.0000    40.0000 </r>
       <r>    -6.9572     0.0000    40.0000 </r>
       <r>    -6.7515     0.0000    40.0000 </r>
       <r>    -6.5459     0.0000    40.0000 </r>
       <r>    -6.3402     0.0000    40.0000 </r>
       <r>    -6.1345     0.0000    40.0000 </r>
       <r>    -5.9288     0.0000    40.0000 </r>
       <r>    -5.7232     0.0000    40.0000 </r>
       <r>    -5.5175     0.0000    40.0000 </r>
       <r>    -5.3118     0.0000    40.0000 </r>
       <r>    -5.1062     0.0000    40.0000 </r>
       <r>    -4.9005     0.0000    40.0000 </r>
       <r>    -4.6948     0.0000    40.0000 </r>
       <r>    -4.4891     0.0000    40.0000 </r>
       <r>    -4.2835     0.0000    40.0000 </r>
       <r>    -4.0778     0.0000    40.0000 </r>
       <r>    -3.8721     0.0000    40.0000 </r>
       <r>    -3.6664     0.0000    40.0000 </r>
       <r>    -3.4608     0.0000    40.0000 </r>
       <r>    -3.2551     0.0000    40.0000 </r>
       <r>    -3.0494     0.0000    40.0000 </r>
       <r>    -2.8437     0.0000    40.0000 </r>
       <r>    -2.6381     0.0000    40.0000 </r>
       <r>    -2.4324     0.0000    40.0000 </r>
       <r>    -2.2267     0.0000    40.0000 </r>
       <r>    -2.0210    -0.0000    40.0000 </r>
       <r>    -1.8154    -0.0000    40.0000 </r>
       <r>    -1.6097    -0.0000    40.0000 </r>
       <r>    -1.4040    -0.0000    40.0000 </r>
       <r>    -1.1983    -0.0000    40.0000 </r>
       <r>    -0.9927    -0.0000    40.0000 </r>
       <r>    -0.7870    -0.0012    39.9997 </r>
       <r>    -0.5813    -0.0162    39.9964 </r>
       <r>    -0.3757     0.0889    40.0147 </r>
       <r>    -0.1700     0.7330    40.1655 </r>
       <r>     0.0357     1.2436    40.4212 </r>
       <r>     0.2414     1.6632    40.7633 </r>
       <r>     0.4470     2.1283    41.2011 </r>
       <r>     0.6527     1.8079    41.5729 </r>
       <r>     0.8584     2.5294    42.0931 </r>
       <r>     1.0641     3.1463    42.7402 </r>
       <r>     1.2697     3.2000    43.3984 </r>
       <r>     1.4754     3.6026    44.1394 </r>
       <r>     1.6811     4.2287    45.0091 </r>
       <r>     1.8868     4.8820    46.0132 </r>
       <r>     2.0924     5.9216    47.2311 </r>
       <r>     2.2981     9.0158    49.0854 </r>
       <r>     2.5038    14.9962    52.1697 </r>
       <r>     2.7095    20.0424    56.2919 </r>
       <r>     2.9151    24.6423    61.3602 </r>
       <r>     3.1208    27.4203    66.9999 </r>
       <r>     3.3265    30.2450    73.2205 </r>
       <r>     3.5322    29.8963    79.3694 </r>
       <r>     3.7378    30.3214    85.6057 </r>
       <r>     3.9435    30.9462    91.9705 </r>
       <r>     4.1492    28.7455    97.8827 </r>
       <r>     4.3549    26.5655   103.3466 </r>
       <r>     4.5605    29.3897   109.3913 </r>
       <r>     4.7662    34.7327   116.5349 </r>
       <r>     4.9719    40.3663   124.8372 </r>
       <r>     5.1775    41.9885   133.4731 </r>
       <r>     5.3832    41.4663   142.0017 </r>
       <r>     5.5889    40.1821   150.2661 </r>
       <r>     5.7946    41.5955   158.8212 </r>
       <r>     6.0002    42.6570   167.5946 </r>
       <r>     6.2059    41.8257   176.1971 </r>
       <r>     6.4116    39.1116   184.2413 </r>
       <r>     6.6173    35.7119   191.5863 </r>
       <r>     6.8229    28.7172   197.4927 </r>
       <r>     7.0286    22.6787   202.1571 </r>
       <r>     7.2343    19.8368   206.2370 </r>
       <r>     7.4400    20.6325   210.4806 </r>
       <r>     7.6456    21.5156   214.9058 </r>
       <r>     7.8513    21.4228   219.3119 </r>
       <r>     8.0570    15.9107   222.5843 </r>
       <r>     8.2627     6.4668   223.9144 </r>
       <r>     8.4683     0.5527   224.0281 </r>
       <r>     8.6740    -0.1256   224.0022 </r>
       <r>     8.8797    -0.0107   224.0000 </r>
       <r>     9.0854    -0.0001   224.0000 </r>
       <r>     9.2910    -0.0000   224.0000 </r>
       <r>     9.4967    -0.0000   224.0000 </r>
       <r>     9.7024    -0.0000   224.0000 </r>
       <r>     9.9080     0.0000   224.0000 </r>
       <r>    10.1137     0.0000   224.0000 </r>
       <r>    10.3194     0.0000   224.0000 </r>
       <r>    10.5251     0.0000   224.0000 </r>
       <r>    10.7307     0.0000   224.0000 </r>
       <r>    10.9364     0.0000   224.0000 </r>
       <r>    11.1421     0.0000   224.0000 </r>
      </set>
     </set>
    </array>
   </total>
  </dos>
 </calculation>
 <structure name="finalpos" >
  <crystal>
   <varray name="basis" >
    <v>      -3.16595808      -3.17368318      -3.18730621 </v>
    <v>       1.60365818       1.48152096      -7.88393500 </v>
    <v>       7.81936371      -7.74650891      -1.68311784 </v>
   </varray>
   <i name="volume">    464.85059148 </i>
   <varray name="rec_basis" >
    <v>      -0.13674619      -0.12681109      -0.05164520 </v>
    <v>       0.04162372       0.06507766      -0.10614444 </v>
    <v>       0.06398437      -0.06469080       0.00085849 </v>
   </varray>
  </crystal>
  <varray name="positions" >
   <v>       0.95624865       0.93198369       0.39646812 </v>
   <v>       0.62982996       0.26252264       0.40431270 </v>
   <v>       0.50241703       0.01014417      -0.01112080 </v>
   <v>      -0.00245283       0.02107413      -0.01394901 </v>
   <v>       0.04110619       0.07539199       0.60309029 </v>
   <v>       0.90230201       0.79721489       0.20142348 </v>
   <v>       0.80442646       0.58880463       0.40326400 </v>
   <v>       0.72780245       0.46884833       0.20049884 </v>
   <v>       0.65126189       0.35031563      -0.00439215 </v>
   <v>       0.37406775       0.72475095       0.60311573 </v>
   <v>       0.12855469       0.27184844       0.40405615 </v>
   <v>       0.83600840       0.66658617       0.00103923 </v>
   <v>       0.92181592       0.86940358       0.79555908 </v>
   <v>       0.55978952       0.13817382       0.19291628 </v>
   <v>       0.39965397       0.79446683       0.19412518 </v>
   <v>       0.43161942       0.86677404       0.79414301 </v>
   <v>       0.29578660       0.59465361       0.41010325 </v>
   <v>       0.86444857       0.71988489       0.60268429 </v>
   <v>       0.45862697       0.92655023       0.40852874 </v>
   <v>       0.16513297       0.33765034      -0.01608762 </v>
   <v>       0.29248812       0.54188428       0.79490300 </v>
   <v>       0.18936019       0.36426853       0.63448696 </v>
   <v>       0.05861354       0.14949741       0.19899043 </v>
   <v>       0.78621092       0.50810207       0.80612107 </v>
   <v>       0.68018613       0.40886607       0.60462579 </v>
   <v>       0.62308554       0.21224422       0.79006612 </v>
   <v>       0.56143629       0.06734701       0.60374576 </v>
   <v>       0.33950087       0.65768323      -0.00251642 </v>
   <v>       0.22067179       0.47306416       0.19979850 </v>
  </varray>
 </structure>
</modeling>
