Nb - Mo - Ta - Ti - V SQS               
           1
    -3.160000   -3.160000   -3.160000
     1.580000    1.580000   -7.900000
     7.900000   -7.900000   -1.580000
   Nb   Mo   Ta   Ti   V 
   5   6   6   6   6
Direct configuration=     1
   0.96666667  0.93333333  0.40000000
   0.63333333  0.26666667  0.40000000
   0.50000000  0.00000000  0.00000000
   0.00000000  0.00000000  0.00000000
   0.03333333  0.06666667  0.60000000
   0.90000000  0.80000000  0.20000000
   0.80000000  0.60000000  0.40000000
   0.73333333  0.46666667  0.20000000
   0.66666667  0.33333333  0.00000000
   0.36666667  0.73333333  0.60000000
   0.13333333  0.26666667  0.40000000
   0.83333333  0.66666667  0.00000000
   0.93333333  0.86666667  0.80000000
   0.56666667  0.13333333  0.20000000
   0.40000000  0.80000000  0.20000000
   0.43333333  0.86666667  0.80000000
   0.30000000  0.60000000  0.40000000
   0.86666667  0.73333333  0.60000000
   0.46666667  0.93333333  0.40000000
   0.16666667  0.33333333  0.00000000
   0.26666667  0.53333333  0.80000000
   0.20000000  0.40000000  0.60000000
   0.06666667  0.13333333  0.20000000
   0.76666667  0.53333333  0.80000000
   0.70000000  0.40000000  0.60000000
   0.60000000  0.20000000  0.80000000
   0.53333333  0.06666667  0.60000000
   0.33333333  0.66666667  0.00000000
   0.23333333  0.46666667  0.20000000
Nb - Mo - Ta - Ti - V SQS               
           1
    -3.137044   -3.128225   -3.135928
     1.551983    1.557978   -7.817145
     7.820632   -7.811034   -1.555514
   Nb   Mo   Ta   Ti   V 
   5   6   6   6   6
Direct configuration=     2
   0.96315682  0.93341274  0.39816242
   0.63286053  0.26601907  0.40237174
   0.50010304  0.00226498 -0.00161353
  -0.00071011  0.00264703 -0.00177482
   0.03365595  0.07027654  0.60111981
   0.90303981  0.79695200  0.20279648
   0.80445112  0.59493790  0.39951247
   0.73330981  0.46631931  0.19824282
   0.66214666  0.33817015 -0.00122301
   0.36997699  0.73014530  0.60130306
   0.13260198  0.27052313  0.40035683
   0.83449801  0.66332330  0.00047964
   0.92707447  0.86761607  0.79974478
   0.56507889  0.13537059  0.19689862
   0.40256755  0.79504856  0.19746375
   0.43622437  0.86573410  0.79800370
   0.29973051  0.60079480  0.40193181
   0.86310243  0.73158648  0.60061024
   0.46437162  0.93260880  0.40391795
   0.16905103  0.33366768 -0.00101384
   0.27278412  0.53619877  0.79872805
   0.20069829  0.39468130  0.60199819
   0.06546980  0.13843046  0.20151850
   0.76473295  0.52916501  0.80111283
   0.69278207  0.40474576  0.60058775
   0.60139429  0.20114832  0.79859412
   0.54013638  0.06759253  0.60057412
   0.33541214  0.66212225 -0.00033125
   0.23029848  0.46849705  0.19992676
Nb - Mo - Ta - Ti - V SQS               
           1
    -3.133118   -3.122791   -3.131811
     1.547192    1.554212   -7.802975
     7.807058   -7.795819   -1.551327
   Nb   Mo   Ta   Ti   V 
   5   6   6   6   6
Direct configuration=     3
   0.96255087  0.93342665  0.39784442
   0.63277993  0.26590721  0.40278164
   0.50011946  0.00265669 -0.00189230
  -0.00083416  0.00310488 -0.00208152
   0.03371050  0.07090102  0.60131366
   0.90356613  0.79642467  0.20328000
   0.80522070  0.59406188  0.39942829
   0.73330538  0.46625913  0.19793903
   0.66136479  0.33900712 -0.00143455
   0.37054959  0.72959364  0.60152843
   0.13247442  0.27119030  0.40041870
   0.83470035  0.66274490  0.00056244
   0.92599449  0.86778077  0.79970011
   0.56480332  0.13572296  0.19636248
   0.40301162  0.79419172  0.19702524
   0.43672280  0.86557245  0.79765883
   0.29968428  0.60093241  0.40226578
   0.86248854  0.73128462  0.60071527
   0.46397719  0.93248385  0.40459496
   0.16946186  0.33372528 -0.00118884
   0.27383776  0.53669390  0.79850896
   0.20082141  0.39376131  0.60234332
   0.06526179  0.13931234  0.20178122
   0.76440139  0.52844417  0.80130474
   0.69153542  0.40556728  0.60068897
   0.60163392  0.20134678  0.79835130
   0.54130958  0.06775220  0.60067409
   0.33577239  0.66133597 -0.00038861
   0.22977429  0.46881391  0.19991393
Nb - Mo - Ta - Ti - V SQS               
           1
    -3.149824   -3.134226   -3.148832
     1.543505    1.553406   -7.826967
     7.830605   -7.813866   -1.552140
   Nb   Mo   Ta   Ti   V 
   5   6   6   6   6
Direct configuration=     4
   0.96018847  0.93356406  0.39697555
   0.63248825  0.26534212  0.40410526
   0.49993140  0.00401717 -0.00320946
  -0.00109585  0.00528217 -0.00347825
   0.03413108  0.07372809  0.60244493
   0.90534747  0.79446711  0.20453858
   0.80774605  0.59112645  0.39942290
   0.73332373  0.46562997  0.19705836
   0.65845372  0.34230195 -0.00264443
   0.37279206  0.72737151  0.60236686
   0.13191790  0.27336789  0.40082140
   0.83575825  0.66106111  0.00072389
   0.92272998  0.86851051  0.79930739
   0.56356773  0.13708950  0.19465289
   0.40445823  0.79154431  0.19550917
   0.43704756  0.86533214  0.79635851
   0.29989208  0.60114118  0.40375200
   0.86018643  0.73000738  0.60109316
   0.46235547  0.93188192  0.40709952
   0.17107232  0.33397499 -0.00228533
   0.27816236  0.53843107  0.79758593
   0.20078667  0.38962418  0.60433079
   0.06442421  0.14275265  0.20267522
   0.76394570  0.52471360  0.80203221
   0.68646128  0.40888154  0.60137772
   0.60262329  0.20253094  0.79707928
   0.54621089  0.06843063  0.60129488
   0.33734640  0.65783392 -0.00075700
   0.22774688  0.47005996  0.19976805
Nb - Mo - Ta - Ti - V SQS               
           1
    -3.170660   -3.148488   -3.170063
     1.538908    1.552401   -7.856890
     7.859972   -7.836376   -1.553153
   Nb   Mo   Ta   Ti   V 
   5   6   6   6   6
Direct configuration=     5
   0.95725445  0.93373605  0.39589380
   0.63212896  0.26463920  0.40575149
   0.49969330  0.00571000 -0.00484768
  -0.00142736  0.00799139 -0.00521530
   0.03464785  0.07724571  0.60385295
   0.90756484  0.79203059  0.20610445
   0.81088793  0.58747273  0.39941659
   0.73334700  0.46484703  0.19596274
   0.65483080  0.34640297 -0.00414989
   0.37558204  0.72460554  0.60341023
   0.13122239  0.27607777  0.40132259
   0.83707565  0.65896549  0.00092478
   0.91867518  0.86941999  0.79881770
   0.56202874  0.13879032  0.19252611
   0.40625856  0.78824935  0.19362332
   0.43744982  0.86503286  0.79474109
   0.30015124  0.60140097  0.40560086
   0.85733194  0.72841919  0.60156199
   0.46034643  0.93113387  0.41021419
   0.17306977  0.33428490 -0.00364854
   0.28352593  0.54059059  0.79643994
   0.20075544  0.38447650  0.60680210
   0.06337738  0.14703389  0.20378771
   0.76338952  0.52007189  0.80293609
   0.68015516  0.41300786  0.60223311
   0.60384734  0.20400385  0.79549767
   0.55229461  0.06927261  0.60206928
   0.33930817  0.65347556 -0.00121539
   0.22522693  0.47161134  0.19958602
Nb - Mo - Ta - Ti - V SQS               
           1
    -3.174038   -3.153471   -3.177054
     1.539301    1.548462   -7.866619
     7.859952   -7.837297   -1.559585
   Nb   Mo   Ta   Ti   V 
   5   6   6   6   6
Direct configuration=     6
   0.95730625  0.93371363  0.39652952
   0.63219211  0.26464899  0.40514732
   0.50009584  0.00494181 -0.00521375
  -0.00162029  0.00872448 -0.00557423
   0.03514716  0.07779606  0.60437704
   0.90702732  0.79226992  0.20492283
   0.81006914  0.58849708  0.39975395
   0.73309628  0.46460428  0.19666115
   0.65491343  0.34617182 -0.00454491
   0.37496437  0.72498013  0.60324580
   0.13104640  0.27525304  0.40174579
   0.83711099  0.66030714  0.00066903
   0.91978091  0.86962048  0.79862815
   0.56216282  0.13865278  0.19297615
   0.40582443  0.78901921  0.19390200
   0.43524325  0.86521441  0.79484157
   0.30057197  0.60094254  0.40582320
   0.85758812  0.72807649  0.60154807
   0.46003009  0.93078998  0.41011022
   0.17300017  0.33448973 -0.00438302
   0.28406175  0.54052379  0.79625383
   0.19977395  0.38326837  0.60792561
   0.06315650  0.14717837  0.20359992
   0.76499757  0.51854719  0.80305966
   0.67945386  0.41333234  0.60262441
   0.60431317  0.20470517  0.79485461
   0.55385306  0.06919085  0.60253740
   0.33960399  0.65287390 -0.00155151
   0.22523541  0.47166601  0.19953020
Nb - Mo - Ta - Ti - V SQS               
           1
    -3.182866   -3.166492   -3.195325
     1.540328    1.538168   -7.892044
     7.859898   -7.839703   -1.576391
   Nb   Mo   Ta   Ti   V 
   5   6   6   6   6
Direct configuration=     7
   0.95744072  0.93365402  0.39819072
   0.63235762  0.26467548  0.40356852
   0.50114859  0.00293623 -0.00616989
  -0.00212513  0.01063947 -0.00651266
   0.03644811  0.07923190  0.60574604
   0.90562547  0.79289718  0.20183507
   0.80792956  0.59117189  0.40063502
   0.73244181  0.46396945  0.19848644
   0.65513010  0.34556882 -0.00557700
   0.37335182  0.72595897  0.60281603
   0.13058871  0.27309895  0.40285230
   0.83720016  0.66381086 -0.00000028
   0.92266600  0.87014351  0.79813239
   0.56251250  0.13829279  0.19415223
   0.40468933  0.79102934  0.19462979
   0.42948470  0.86568993  0.79510461
   0.30167073  0.59974481  0.40640441
   0.85825747  0.72718146  0.60151188
   0.45920561  0.92989242  0.40983887
   0.17281890  0.33502583 -0.00630242
   0.28546034  0.54034929  0.79576741
   0.19721446  0.38011259  0.61086264
   0.06257998  0.14755611  0.20310913
   0.76919738  0.51456451  0.80338320
   0.67762255  0.41417952  0.60364687
   0.60552776  0.20653718  0.79317357
   0.55791945  0.06897547  0.60376028
   0.34037784  0.65130316 -0.00242947
   0.22525746  0.47180886  0.19938427
Nb - Mo - Ta - Ti - V SQS               
           1
    -3.174595   -3.159558   -3.190076
     1.535723    1.528207   -7.871946
     7.830972   -7.810180   -1.577577
   Nb   Mo   Ta   Ti   V 
   5   6   6   6   6
Direct configuration=     8
   0.95725353  0.93360659  0.39858179
   0.63250702  0.26459668  0.40327118
   0.50126710  0.00263504 -0.00647498
  -0.00235145  0.01155987 -0.00709419
   0.03709890  0.07987200  0.60638919
   0.90520686  0.79336793  0.20100504
   0.80730591  0.59201765  0.40088103
   0.73205940  0.46438812  0.19901076
   0.65529031  0.34538514 -0.00583944
   0.37265372  0.72641468  0.60272820
   0.13023627  0.27255181  0.40331636
   0.83718990  0.66460081 -0.00022417
   0.92266360  0.87046581  0.79785453
   0.56273839  0.13782303  0.19439148
   0.40416837  0.79165752  0.19485821
   0.42829747  0.86570079  0.79520556
   0.30147168  0.59926483  0.40660001
   0.85858690  0.72671546  0.60156008
   0.45903098  0.92948819  0.40971141
   0.17253705  0.33531962 -0.00731157
   0.28622069  0.54030598  0.79546066
   0.19578765  0.37867129  0.61245132
   0.06235656  0.14769768  0.20293325
   0.77161026  0.51258132  0.80356344
   0.67683577  0.41440298  0.60393492
   0.60626241  0.20735646  0.79242891
   0.55976788  0.06890760  0.60421158
   0.34086177  0.65076949 -0.00276694
   0.22508509  0.47187565  0.19936239
Nb - Mo - Ta - Ti - V SQS               
           1
    -3.170695   -3.156288   -3.187600
     1.533552    1.523510   -7.862468
     7.817331   -7.796257   -1.578136
   Nb   Mo   Ta   Ti   V 
   5   6   6   6   6
Direct configuration=     9
   0.95716502  0.93358403  0.39876692
   0.63257771  0.26455950  0.40313045
   0.50132327  0.00249269 -0.00661935
  -0.00245871  0.01199545 -0.00736960
   0.03740616  0.08017443  0.60669349
   0.90500891  0.79359095  0.20061209
   0.80701076  0.59241765  0.40099736
   0.73187841  0.46458599  0.19925888
   0.65536614  0.34529834 -0.00596364
   0.37232358  0.72663033  0.60268658
   0.13006985  0.27229289  0.40353612
   0.83718476  0.66497452 -0.00033027
   0.92266237  0.87061836  0.79772296
   0.56284532  0.13760072  0.19450480
   0.40392185  0.79195460  0.19496625
   0.42773630  0.86570603  0.79525339
   0.30137777  0.59903776  0.40669268
   0.85874278  0.72649499  0.60158295
   0.45894863  0.92929706  0.40965115
   0.17240384  0.33545899 -0.00778928
   0.28658013  0.54028552  0.79531543
   0.19511364  0.37798915  0.61320360
   0.06225092  0.14776473  0.20284998
   0.77275150  0.51164297  0.80364898
   0.67646377  0.41450865  0.60407126
   0.60660942  0.20774416  0.79207627
   0.56064152  0.06887512  0.60442514
   0.34109076  0.65051714 -0.00292662
   0.22500360  0.47190726  0.19935202
Nb - Mo - Ta - Ti - V SQS               
           1
    -3.171448   -3.157253   -3.188829
     1.534912    1.521079   -7.863621
     7.815622   -7.792113   -1.581661
   Nb   Mo   Ta   Ti   V 
   5   6   6   6   6
Direct configuration=    10
   0.95677697  0.93362409  0.39870889
   0.63267511  0.26438385  0.40341984
   0.50082898  0.00311283 -0.00679487
  -0.00247205  0.01279527 -0.00800880
   0.03797149  0.08064802  0.60720931
   0.90494977  0.79408751  0.20066935
   0.80680361  0.59257630  0.40109662
   0.73162939  0.46540581  0.19929601
   0.65553155  0.34525895 -0.00597427
   0.37194962  0.72691233  0.60273677
   0.12985421  0.27230180  0.40376829
   0.83734412  0.66456780 -0.00047803
   0.92151396  0.87083690  0.79742603
   0.56292068  0.13707836  0.19436634
   0.40346518  0.79215174  0.19499209
   0.42825541  0.86562829  0.79530597
   0.30046451  0.59878291  0.40678296
   0.85900275  0.72607470  0.60171396
   0.45901300  0.92910615  0.40961559
   0.17200322  0.33562389 -0.00872909
   0.28710672  0.54023508  0.79498721
   0.19382215  0.37700691  0.61475827
   0.06217663  0.14784979  0.20274978
   0.77521967  0.50997623  0.80373198
   0.67610399  0.41437203  0.60410929
   0.60719411  0.20835395  0.79162907
   0.56169254  0.06889998  0.60460882
   0.34144721  0.65039928 -0.00305149
   0.22475551  0.47194925  0.19935414
Nb - Mo - Ta - Ti - V SQS               
           1
    -3.173706   -3.160148   -3.192515
     1.538993    1.513785   -7.867080
     7.810494   -7.779682   -1.592236
   Nb   Mo   Ta   Ti   V 
   5   6   6   6   6
Direct configuration=    11
   0.95561311  0.93374439  0.39853473
   0.63296743  0.26385642  0.40428845
   0.49934614  0.00497358 -0.00732207
  -0.00251269  0.01519577 -0.00992773
   0.03966689  0.08206781  0.60875697
   0.90477216  0.79557707  0.20084085
   0.80618229  0.59305208  0.40139439
   0.73088211  0.46786516  0.19940686
   0.65602766  0.34514079 -0.00600613
   0.37082794  0.72775824  0.60288722
   0.12920756  0.27232815  0.40446506
   0.83782223  0.66334791 -0.00092121
   0.91806949  0.87149313  0.79653478
   0.56314692  0.13551155  0.19395117
   0.40209545  0.79274312  0.19506953
   0.42981232  0.86539493  0.79546380
   0.29772568  0.59801835  0.40705412
   0.85978269  0.72481360  0.60210743
   0.45920615  0.92853347  0.40950900
   0.17080130  0.33612024 -0.01154971
   0.28868595  0.54008425  0.79400217
   0.18994985  0.37405774  0.61942480
   0.06195371  0.14810515  0.20244900
   0.78262298  0.50497574  0.80398219
   0.67502505  0.41396214  0.60422356
   0.60894719  0.21018397  0.79028650
   0.56484475  0.06897414  0.60515998
   0.34251625  0.65004588 -0.00342618
   0.22401143  0.47207523  0.19936046
Nb - Mo - Ta - Ti - V SQS               
           1
    -3.178020   -3.164740   -3.196874
     1.544489    1.516777   -7.881989
     7.821960   -7.788934   -1.597289
   Nb   Mo   Ta   Ti   V 
   5   6   6   6   6
Direct configuration=    12
   0.95573739  0.93397320  0.39840714
   0.63259525  0.26400610  0.40436901
   0.49993086  0.00520129 -0.00757754
  -0.00272118  0.01550404 -0.01041415
   0.03987593  0.08165485  0.60852588
   0.90457205  0.79551521  0.20107566
   0.80571094  0.59238898  0.40144502
   0.73093639  0.46769218  0.19937268
   0.65558254  0.34539305 -0.00576904
   0.37130754  0.72747664  0.60294570
   0.12939219  0.27265761  0.40441388
   0.83746513  0.66345878 -0.00075328
   0.91845610  0.87098174  0.79667738
   0.56311262  0.13592472  0.19390713
   0.40205225  0.79269307  0.19476886
   0.42995064  0.86523796  0.79549692
   0.29742648  0.59803904  0.40733191
   0.85989842  0.72447620  0.60213726
   0.45894923  0.92864819  0.40965419
   0.17047247  0.33596078 -0.01203047
   0.28876811  0.54047900  0.79391728
   0.18970172  0.37418000  0.62037053
   0.06173220  0.14834903  0.20231683
   0.78397325  0.50454428  0.80377754
   0.67528557  0.41358191  0.60405537
   0.60896748  0.21035926  0.79049151
   0.56453098  0.06897994  0.60510465
   0.34242410  0.65043568 -0.00326941
   0.22391333  0.47220728  0.19925157
Nb - Mo - Ta - Ti - V SQS               
           1
    -3.179272   -3.166074   -3.198140
     1.546085    1.517645   -7.886319
     7.825289   -7.791621   -1.598756
   Nb   Mo   Ta   Ti   V 
   5   6   6   6   6
Direct configuration=    13
   0.95577345  0.93403953  0.39837013
   0.63248734  0.26404947  0.40439236
   0.50010043  0.00526732 -0.00765164
  -0.00278162  0.01559343 -0.01055522
   0.03993649  0.08153520  0.60845888
   0.90451403  0.79549725  0.20114376
   0.80557420  0.59219680  0.40145973
   0.73095211  0.46764205  0.19936277
   0.65545350  0.34546612 -0.00570029
   0.37144659  0.72739503  0.60296267
   0.12944576  0.27275310  0.40439902
   0.83736159  0.66349089 -0.00070458
   0.91856816  0.87083352  0.79671876
   0.56310272  0.13604447  0.19389434
   0.40203971  0.79267860  0.19468167
   0.42999073  0.86519247  0.79550653
   0.29733973  0.59804501  0.40741246
   0.85993195  0.72437842  0.60214592
   0.45887475  0.92868142  0.40969629
   0.17037708  0.33591462 -0.01216989
   0.28879198  0.54059340  0.79389264
   0.18962981  0.37421531  0.62064479
   0.06166798  0.14841972  0.20227850
   0.78436475  0.50441928  0.80371820
   0.67536107  0.41347174  0.60400661
   0.60897339  0.21041003  0.79055095
   0.56443999  0.06898162  0.60508861
   0.34239743  0.65054862 -0.00322396
   0.22388490  0.47224557  0.19921999
Nb - Mo - Ta - Ti - V SQS               
           1
    -3.178138   -3.165172   -3.197002
     1.548422    1.517830   -7.886995
     7.823119   -7.787522   -1.600666
   Nb   Mo   Ta   Ti   V 
   5   6   6   6   6
Direct configuration=    14
   0.95583462  0.93417973  0.39827166
   0.63223406  0.26413703  0.40444132
   0.50054125  0.00542067 -0.00782611
  -0.00293551  0.01583943 -0.01090010
   0.04003555  0.08120311  0.60825003
   0.90436777  0.79544277  0.20131330
   0.80530246  0.59173134  0.40149007
   0.73096120  0.46751223  0.19934636
   0.65509721  0.34567475 -0.00553202
   0.37179334  0.72718607  0.60299769
   0.12951651  0.27298928  0.40436580
   0.83713641  0.66356702 -0.00056593
   0.91888714  0.87046365  0.79681762
   0.56306468  0.13636345  0.19386862
   0.40202809  0.79263543  0.19448374
   0.43012679  0.86504610  0.79550767
   0.29711063  0.59807878  0.40760049
   0.86001856  0.72415091  0.60215391
   0.45870413  0.92875317  0.40978946
   0.17011613  0.33580170 -0.01251221
   0.28892391  0.54090664  0.79387275
   0.18951264  0.37428058  0.62131861
   0.06149225  0.14861401  0.20215738
   0.78526093  0.50416385  0.80358620
   0.67559324  0.41318483  0.60388439
   0.60899927  0.21049876  0.79071585
   0.56421178  0.06896419  0.60505879
   0.34227749  0.65086053 -0.00310317
   0.22378748  0.47235000  0.19914781
Nb - Mo - Ta - Ti - V SQS               
           1
    -3.174735   -3.162466   -3.193588
     1.555433    1.518385   -7.889026
     7.816609   -7.775223   -1.606397
   Nb   Mo   Ta   Ti   V 
   5   6   6   6   6
Direct configuration=    15
   0.95601828  0.93460038  0.39797607
   0.63147407  0.26439962  0.40458824
   0.50186422  0.00588087 -0.00834983
  -0.00339726  0.01657766 -0.01193524
   0.04033242  0.08020725  0.60762337
   0.90392887  0.79527919  0.20182216
   0.80448657  0.59033517  0.40158131
   0.73098835  0.46712287  0.19929715
   0.65402824  0.34630031 -0.00502706
   0.37283375  0.72655926  0.60310285
   0.12972903  0.27369772  0.40426600
   0.83646075  0.66379521 -0.00014981
   0.91984410  0.86935415  0.79711445
   0.56295080  0.13732025  0.19379131
   0.40199312  0.79250617  0.19388972
   0.43053499  0.86460707  0.79551112
   0.29642320  0.59817986  0.40816479
   0.86027827  0.72346851  0.60217800
   0.45819220  0.92896827  0.41006907
   0.16933279  0.33546338 -0.01353953
   0.28932010  0.54184619  0.79381294
   0.18916131  0.37447559  0.62334088
   0.06096502  0.14919690  0.20179381
   0.78795007  0.50339789  0.80319012
   0.67628967  0.41232441  0.60351769
   0.60907706  0.21076470  0.79121072
   0.56352690  0.06891191  0.60496933
   0.34191789  0.65179594 -0.00274077
   0.22349522  0.47266330  0.19893115
Nb - Mo - Ta - Ti - V SQS               
           1
    -3.172642   -3.160488   -3.191091
     1.555661    1.516973   -7.883644
     7.811145   -7.768477   -1.606698
   Nb   Mo   Ta   Ti   V 
   5   6   6   6   6
Direct configuration=    16
   0.95591117  0.93447369  0.39798787
   0.63155514  0.26429186  0.40457421
   0.50166757  0.00594566 -0.00833866
  -0.00322639  0.01674479 -0.01193359
   0.04023503  0.08019459  0.60760393
   0.90393712  0.79537878  0.20175389
   0.80468016  0.59057469  0.40163169
   0.73086745  0.46719968  0.19933808
   0.65400455  0.34635044 -0.00510432
   0.37269618  0.72663880  0.60305624
   0.12956198  0.27354634  0.40431364
   0.83667814  0.66369927 -0.00013056
   0.91990059  0.86940926  0.79696636
   0.56274619  0.13730197  0.19383132
   0.40178703  0.79263044  0.19398918
   0.43067070  0.86458594  0.79548554
   0.29626429  0.59814610  0.40813530
   0.86043062  0.72344921  0.60216050
   0.45828898  0.92894333  0.40998110
   0.16920107  0.33549065 -0.01366465
   0.28957180  0.54180721  0.79395722
   0.18921961  0.37423809  0.62351885
   0.06101234  0.14916162  0.20167113
   0.78799552  0.50340346  0.80323508
   0.67654743  0.41218107  0.60356980
   0.60917544  0.21074108  0.79118951
   0.56349895  0.06886030  0.60500760
   0.34169714  0.65194888 -0.00274643
   0.22342420  0.47266279  0.19896017
Nb - Mo - Ta - Ti - V SQS               
           1
    -3.170775   -3.158725   -3.188864
     1.555865    1.515713   -7.878845
     7.806274   -7.762462   -1.606966
   Nb   Mo   Ta   Ti   V 
   5   6   6   6   6
Direct configuration=    17
   0.95581560  0.93436065  0.39799842
   0.63162747  0.26419573  0.40456171
   0.50149213  0.00600346 -0.00832869
  -0.00307392  0.01689391 -0.01193213
   0.04014814  0.08018330  0.60758658
   0.90394449  0.79546765  0.20169296
   0.80485292  0.59078838  0.40167662
   0.73075960  0.46726820  0.19937460
   0.65398340  0.34639518 -0.00517326
   0.37257344  0.72670978  0.60301465
   0.12941293  0.27341125  0.40435617
   0.83687208  0.66361367 -0.00011337
   0.91995098  0.86945846  0.79683422
   0.56256364  0.13728565  0.19386703
   0.40160318  0.79274129  0.19407791
   0.43079178  0.86456710  0.79546271
   0.29612250  0.59811599  0.40810899
   0.86056654  0.72343201  0.60214488
   0.45837531  0.92892110  0.40990260
   0.16908354  0.33551500 -0.01377630
   0.28979637  0.54177242  0.79408597
   0.18927161  0.37402616  0.62367768
   0.06105455  0.14913017  0.20156166
   0.78803608  0.50340843  0.80327520
   0.67677739  0.41205318  0.60361632
   0.60926320  0.21072001  0.79117058
   0.56347402  0.06881423  0.60504176
   0.34150019  0.65208532 -0.00275150
   0.22336084  0.47266233  0.19898606
Nb - Mo - Ta - Ti - V SQS               
           1
    -3.171321   -3.159476   -3.188876
     1.558058    1.515489   -7.880211
     7.807217   -7.761575   -1.609282
   Nb   Mo   Ta   Ti   V 
   5   6   6   6   6
Direct configuration=    18
   0.95571194  0.93422230  0.39799767
   0.63165233  0.26408627  0.40455208
   0.50130848  0.00611003 -0.00834500
  -0.00287473  0.01714683 -0.01199661
   0.04007514  0.08012712  0.60754468
   0.90390077  0.79561701  0.20160271
   0.80501601  0.59103546  0.40176314
   0.73060445  0.46736503  0.19943703
   0.65390530  0.34648025 -0.00526089
   0.37243606  0.72677621  0.60297007
   0.12923662  0.27321050  0.40441290
   0.83711454  0.66353387 -0.00009791
   0.92005612  0.86948575  0.79666523
   0.56227033  0.13731028  0.19391367
   0.40133400  0.79291383  0.19418146
   0.43097270  0.86455377  0.79542147
   0.29600860  0.59801960  0.40809862
   0.86081478  0.72336423  0.60213697
   0.45846268  0.92889736  0.40978590
   0.16887520  0.33554502 -0.01399378
   0.29012580  0.54172361  0.79427953
   0.18934042  0.37369330  0.62401720
   0.06106879  0.14908421  0.20138849
   0.78819006  0.50340604  0.80332988
   0.67713983  0.41184537  0.60368352
   0.60939899  0.21070964  0.79116469
   0.56338350  0.06873425  0.60507889
   0.34120610  0.65234058 -0.00274467
   0.22326518  0.47266228  0.19901303
Nb - Mo - Ta - Ti - V SQS               
           1
    -3.172956   -3.161729   -3.188913
     1.564638    1.514815   -7.884309
     7.810047   -7.758915   -1.616230
   Nb   Mo   Ta   Ti   V 
   5   6   6   6   6
Direct configuration=    19
   0.95540092  0.93380730  0.39799552
   0.63172684  0.26375799  0.40452326
   0.50075769  0.00642966 -0.00839397
  -0.00227714  0.01790555 -0.01219020
   0.03985611  0.07995867  0.60741901
   0.90376968  0.79606508  0.20133191
   0.80550538  0.59177648  0.40202261
   0.73013915  0.46765536  0.19962427
   0.65367106  0.34673547 -0.00552380
   0.37202402  0.72697547  0.60283631
   0.12870769  0.27260826  0.40458320
   0.83784177  0.66329455 -0.00005148
   0.92037145  0.86956779  0.79615827
   0.56139061  0.13738406  0.19405361
   0.40052673  0.79343119  0.19449202
   0.43151535  0.86451386  0.79529777
   0.29566689  0.59773048  0.40806759
   0.86155933  0.72316101  0.60211325
   0.45872468  0.92882629  0.40943582
   0.16825023  0.33563525 -0.01464621
   0.29111396  0.54157711  0.79486023
   0.18954675  0.37269462  0.62503589
   0.06111140  0.14894653  0.20086899
   0.78865195  0.50339884  0.80349394
   0.67822686  0.41122208  0.60388520
   0.60980626  0.21067857  0.79114703
   0.56311197  0.06849429  0.60519033
   0.34032413  0.65310612 -0.00272427
   0.22297825  0.47266208  0.19909391
Nb - Mo - Ta - Ti - V SQS               
           1
    -3.173244   -3.162819   -3.189013
     1.566918    1.513845   -7.885205
     7.808784   -7.756461   -1.619407
   Nb   Mo   Ta   Ti   V 
   5   6   6   6   6
Direct configuration=    20
   0.95542032  0.93374164  0.39788315
   0.63149238  0.26375979  0.40453586
   0.50107417  0.00652228 -0.00849934
  -0.00237867  0.01825787 -0.01247228
   0.03990139  0.07977302  0.60722511
   0.90348745  0.79629293  0.20127579
   0.80534397  0.59165905  0.40213688
   0.72991584  0.46783453  0.19970850
   0.65337830  0.34691631 -0.00549989
   0.37215340  0.72684649  0.60282868
   0.12861326  0.27248111  0.40464383
   0.83774492  0.66347228 -0.00001783
   0.92055803  0.86949133  0.79615222
   0.56122344  0.13748063  0.19401112
   0.40041002  0.79359630  0.19447290
   0.43171610  0.86452658  0.79522042
   0.29589091  0.59747557  0.40822598
   0.86192374  0.72293627  0.60211042
   0.45861968  0.92877585  0.40934007
   0.16792253  0.33564406 -0.01501685
   0.29159711  0.54161381  0.79497233
   0.18972033  0.37220435  0.62574005
   0.06075790  0.14897973  0.20065576
   0.78901305  0.50343265  0.80358243
   0.67860369  0.41098414  0.60395648
   0.61008514  0.21069560  0.79115107
   0.56291269  0.06837335  0.60519811
   0.34013930  0.65353709 -0.00264272
   0.22275962  0.47269539  0.19912177
Nb - Mo - Ta - Ti - V SQS               
           1
    -3.174106   -3.166090   -3.189314
     1.573758    1.510934   -7.887891
     7.804995   -7.749098   -1.628935
   Nb   Mo   Ta   Ti   V 
   5   6   6   6   6
Direct configuration=    21
   0.95547847  0.93354485  0.39754599
   0.63078912  0.26376512  0.40457368
   0.50202348  0.00680030 -0.00881563
  -0.00268303  0.01931503 -0.01331894
   0.04003712  0.07921641  0.60664339
   0.90264102  0.79697640  0.20110729
   0.80485976  0.59130663  0.40247987
   0.72924607  0.46837183  0.19996118
   0.65250027  0.34745868 -0.00542820
   0.37254141  0.72645963  0.60280586
   0.12832995  0.27209960  0.40482588
   0.83745450  0.66400532  0.00008304
   0.92111764  0.86926201  0.79613408
   0.56072206  0.13777033  0.19388357
   0.40006001  0.79409158  0.19441546
   0.43231824  0.86456487  0.79498830
   0.29656274  0.59671079  0.40870137
   0.86301665  0.72226224  0.60210201
   0.45830472  0.92862466  0.40905282
   0.16693964  0.33567091 -0.01612899
   0.29304629  0.54172384  0.79530859
   0.19024074  0.37073285  0.62785330
   0.05969761  0.14907953  0.20001594
   0.79009617  0.50353402  0.80384789
   0.67973385  0.41027042  0.60417044
   0.61092162  0.21074673  0.79116314
   0.56231492  0.06801052  0.60522156
   0.33958507  0.65482967 -0.00239826
   0.22210386  0.47279523  0.19920537
Nb - Mo - Ta - Ti - V SQS               
           1
    -3.175831   -3.172631   -3.189916
     1.587437    1.505111   -7.893263
     7.797417   -7.734372   -1.647991
   Nb   Mo   Ta   Ti   V 
   5   6   6   6   6
Direct configuration=    22
   0.95559460  0.93315232  0.39687142
   0.62938336  0.26377538  0.40464960
   0.50392135  0.00735738 -0.00944931
  -0.00329038  0.02143068 -0.01501470
   0.04030805  0.07810522  0.60547977
   0.90094968  0.79834290  0.20076945
   0.80389151  0.59060094  0.40316695
   0.72790771  0.46944504  0.20046644
   0.65074563  0.34854242 -0.00528514
   0.37331669  0.72568643  0.60276056
   0.12776330  0.27133628  0.40519079
   0.83687441  0.66507059  0.00028437
   0.92223605  0.86880385  0.79609789
   0.55972012  0.13834962  0.19362807
   0.39936082  0.79508177  0.19429999
   0.43352193  0.86464229  0.79452347
   0.29790492  0.59518085  0.40965360
   0.86520071  0.72091519  0.60208569
   0.45767507  0.92832303  0.40847819
   0.16497514  0.33572712 -0.01835461
   0.29594311  0.54194356  0.79598102
   0.19127940  0.36778558  0.63208452
   0.05757839  0.14928028  0.19873557
   0.79226126  0.50373646  0.80437872
   0.68199231  0.40884345  0.60459922
   0.61259372  0.21084928  0.79118698
   0.56111972  0.06728483  0.60526914
   0.33847829  0.65741296 -0.00191041
   0.22079312  0.47299432  0.19937276
Nb - Mo - Ta - Ti - V SQS               
           1
    -3.174807   -3.168749   -3.189559
     1.579318    1.508567   -7.890075
     7.801914   -7.743112   -1.636681
   Nb   Mo   Ta   Ti   V 
   5   6   6   6   6
Direct configuration=    23
   0.95552589  0.93338402  0.39727210
   0.63021679  0.26376978  0.40460422
   0.50279582  0.00702551 -0.00907190
  -0.00293152  0.02017345 -0.01400532