  29  29   0   0
  0.1679057E+02  0.5525242E-09  0.8287863E-09  0.1139058E-08  0.5000000E-15
  1.000000000000000E-004
  CAR 
 SQS with 1 vacancy for VFE and VRV      
     12.04136432    -50.20325484  301      6.69258719      1.00000000
    -50.203  0.0000E+00  0.0000E+00
    -49.996  0.0000E+00  0.0000E+00
    -49.788  0.0000E+00  0.0000E+00
    -49.581  0.0000E+00  0.0000E+00
    -49.373  0.0000E+00  0.0000E+00
    -49.166 -0.5057E-35 -0.1049E-35
    -48.958 -0.1905E-27 -0.3952E-28
    -48.751 -0.8127E-21 -0.1686E-21
    -48.543 -0.3872E-15 -0.8034E-16
    -48.336 -0.2139E-10 -0.4438E-11
    -48.128 -0.1337E-06 -0.2775E-07
    -47.921 -0.9226E-04 -0.1917E-04
    -47.713 -0.6332E-02 -0.1333E-02
    -47.506 -0.5213E-02 -0.2415E-02
    -47.299  0.4058E+00  0.8178E-01
    -47.091  0.6589E+00  0.2185E+00
    -46.884  0.1231E+00  0.2440E+00
    -46.676 -0.1839E-01  0.2402E+00
    -46.469 -0.1005E-02  0.2400E+00
    -46.261 -0.4259E-05  0.2400E+00
    -46.054 -0.1892E-08  0.2400E+00
    -45.846 -0.9298E-13  0.2400E+00
    -45.639  0.0000E+00  0.2400E+00
    -45.431  0.0000E+00  0.2400E+00
    -45.224  0.0000E+00  0.2400E+00
    -45.016  0.0000E+00  0.2400E+00
    -44.809  0.0000E+00  0.2400E+00
    -44.601  0.0000E+00  0.2400E+00
    -44.394  0.0000E+00  0.2400E+00
    -44.186  0.0000E+00  0.2400E+00
    -43.979  0.0000E+00  0.2400E+00
    -43.771  0.0000E+00  0.2400E+00
    -43.564  0.0000E+00  0.2400E+00
    -43.356  0.0000E+00  0.2400E+00
    -43.149  0.0000E+00  0.2400E+00
    -42.941  0.0000E+00  0.2400E+00
    -42.734  0.0000E+00  0.2400E+00
    -42.526  0.0000E+00  0.2400E+00
    -42.319  0.0000E+00  0.2400E+00
    -42.111  0.0000E+00  0.2400E+00
    -41.904  0.0000E+00  0.2400E+00
    -41.696  0.0000E+00  0.2400E+00
    -41.489  0.0000E+00  0.2400E+00
    -41.282  0.0000E+00  0.2400E+00
    -41.074  0.0000E+00  0.2400E+00
    -40.867  0.0000E+00  0.2400E+00
    -40.659  0.0000E+00  0.2400E+00
    -40.452  0.0000E+00  0.2400E+00
    -40.244  0.0000E+00  0.2400E+00
    -40.037  0.0000E+00  0.2400E+00
    -39.829  0.0000E+00  0.2400E+00
    -39.622  0.0000E+00  0.2400E+00
    -39.414  0.0000E+00  0.2400E+00
    -39.207  0.0000E+00  0.2400E+00
    -38.999  0.0000E+00  0.2400E+00
    -38.792  0.0000E+00  0.2400E+00
    -38.584  0.0000E+00  0.2400E+00
    -38.377  0.0000E+00  0.2400E+00
    -38.169  0.0000E+00  0.2400E+00
    -37.962  0.0000E+00  0.2400E+00
    -37.754  0.0000E+00  0.2400E+00
    -37.547  0.0000E+00  0.2400E+00
    -37.339  0.0000E+00  0.2400E+00
    -37.132  0.0000E+00  0.2400E+00
    -36.924  0.0000E+00  0.2400E+00
    -36.717  0.0000E+00  0.2400E+00
    -36.509  0.0000E+00  0.2400E+00
    -36.302  0.0000E+00  0.2400E+00
    -36.094  0.0000E+00  0.2400E+00
    -35.887  0.0000E+00  0.2400E+00
    -35.680  0.0000E+00  0.2400E+00
    -35.472  0.0000E+00  0.2400E+00
    -35.265  0.0000E+00  0.2400E+00
    -35.057  0.0000E+00  0.2400E+00
    -34.850  0.0000E+00  0.2400E+00
    -34.642  0.0000E+00  0.2400E+00
    -34.435  0.0000E+00  0.2400E+00
    -34.227  0.0000E+00  0.2400E+00
    -34.020  0.0000E+00  0.2400E+00
    -33.812  0.0000E+00  0.2400E+00
    -33.605  0.0000E+00  0.2400E+00
    -33.397  0.0000E+00  0.2400E+00
    -33.190  0.0000E+00  0.2400E+00
    -32.982  0.0000E+00  0.2400E+00
    -32.775  0.0000E+00  0.2400E+00
    -32.567  0.0000E+00  0.2400E+00
    -32.360  0.0000E+00  0.2400E+00
    -32.152  0.0000E+00  0.2400E+00
    -31.945  0.0000E+00  0.2400E+00
    -31.737  0.0000E+00  0.2400E+00
    -31.530  0.0000E+00  0.2400E+00
    -31.322  0.0000E+00  0.2400E+00
    -31.115  0.0000E+00  0.2400E+00
    -30.907  0.0000E+00  0.2400E+00
    -30.700  0.0000E+00  0.2400E+00
    -30.492  0.0000E+00  0.2400E+00
    -30.285  0.0000E+00  0.2400E+00
    -30.077  0.0000E+00  0.2400E+00
    -29.870  0.0000E+00  0.2400E+00
    -29.663  0.0000E+00  0.2400E+00
    -29.455  0.0000E+00  0.2400E+00
    -29.248  0.0000E+00  0.2400E+00
    -29.040  0.0000E+00  0.2400E+00
    -28.833  0.0000E+00  0.2400E+00
    -28.625  0.0000E+00  0.2400E+00
    -28.418  0.0000E+00  0.2400E+00
    -28.210  0.0000E+00  0.2400E+00
    -28.003  0.0000E+00  0.2400E+00
    -27.795  0.0000E+00  0.2400E+00
    -27.588  0.0000E+00  0.2400E+00
    -27.380  0.0000E+00  0.2400E+00
    -27.173  0.0000E+00  0.2400E+00
    -26.965  0.0000E+00  0.2400E+00
    -26.758  0.0000E+00  0.2400E+00
    -26.550  0.0000E+00  0.2400E+00
    -26.343  0.0000E+00  0.2400E+00
    -26.135  0.0000E+00  0.2400E+00
    -25.928  0.0000E+00  0.2400E+00
    -25.720 -0.1011E-31  0.2400E+00
    -25.513 -0.1228E-24  0.2400E+00
    -25.305 -0.1703E-18  0.2400E+00
    -25.098 -0.2598E-13  0.2400E+00
    -24.890 -0.4599E-09  0.2400E+00
    -24.683 -0.9272E-06  0.2400E+00
    -24.475 -0.2172E-03  0.2400E+00
    -24.268 -0.5354E-02  0.2388E+00
    -24.061  0.2073E-01  0.2431E+00
    -23.853  0.2183E+00  0.2884E+00
    -23.646  0.4148E+00  0.3745E+00
    -23.438  0.9654E+00  0.5748E+00
    -23.231  0.1141E+01  0.8116E+00
    -23.023  0.4830E+00  0.9118E+00
    -22.816  0.2160E+00  0.9566E+00
    -22.608  0.2071E-01  0.9609E+00
    -22.401 -0.4156E-02  0.9601E+00
    -22.193 -0.3686E-03  0.9600E+00
    -21.986 -0.2955E-05  0.9600E+00
    -21.778 -0.2477E-08  0.9600E+00
    -21.571 -0.2254E-12  0.9600E+00
    -21.363  0.0000E+00  0.9600E+00
    -21.156  0.0000E+00  0.9600E+00
    -20.948  0.0000E+00  0.9600E+00
    -20.741  0.0000E+00  0.9600E+00
    -20.533  0.0000E+00  0.9600E+00
    -20.326  0.0000E+00  0.9600E+00
    -20.118  0.0000E+00  0.9600E+00
    -19.911  0.0000E+00  0.9600E+00
    -19.703  0.0000E+00  0.9600E+00
    -19.496  0.0000E+00  0.9600E+00
    -19.288  0.0000E+00  0.9600E+00
    -19.081  0.0000E+00  0.9600E+00
    -18.873  0.0000E+00  0.9600E+00
    -18.666  0.0000E+00  0.9600E+00
    -18.458  0.0000E+00  0.9600E+00
    -18.251  0.0000E+00  0.9600E+00
    -18.044  0.0000E+00  0.9600E+00
    -17.836  0.0000E+00  0.9600E+00
    -17.629  0.0000E+00  0.9600E+00
    -17.421  0.0000E+00  0.9600E+00
    -17.214  0.0000E+00  0.9600E+00
    -17.006  0.0000E+00  0.9600E+00
    -16.799  0.0000E+00  0.9600E+00
    -16.591  0.0000E+00  0.9600E+00
    -16.384  0.0000E+00  0.9600E+00
    -16.176  0.0000E+00  0.9600E+00
    -15.969  0.0000E+00  0.9600E+00
    -15.761  0.0000E+00  0.9600E+00
    -15.554  0.0000E+00  0.9600E+00
    -15.346  0.0000E+00  0.9600E+00
    -15.139  0.0000E+00  0.9600E+00
    -14.931  0.0000E+00  0.9600E+00
    -14.724  0.0000E+00  0.9600E+00
    -14.516  0.0000E+00  0.9600E+00
    -14.309  0.0000E+00  0.9600E+00
    -14.101  0.0000E+00  0.9600E+00
    -13.894  0.0000E+00  0.9600E+00
    -13.686  0.0000E+00  0.9600E+00
    -13.479  0.0000E+00  0.9600E+00
    -13.271  0.0000E+00  0.9600E+00
    -13.064  0.0000E+00  0.9600E+00
    -12.856  0.0000E+00  0.9600E+00
    -12.649  0.0000E+00  0.9600E+00
    -12.442  0.0000E+00  0.9600E+00
    -12.234  0.0000E+00  0.9600E+00
    -12.027  0.0000E+00  0.9600E+00
    -11.819  0.0000E+00  0.9600E+00
    -11.612  0.0000E+00  0.9600E+00
    -11.404  0.0000E+00  0.9600E+00
    -11.197  0.0000E+00  0.9600E+00
    -10.989  0.0000E+00  0.9600E+00
    -10.782  0.0000E+00  0.9600E+00
    -10.574  0.0000E+00  0.9600E+00
    -10.367  0.0000E+00  0.9600E+00
    -10.159  0.0000E+00  0.9600E+00
     -9.952  0.0000E+00  0.9600E+00
     -9.744  0.0000E+00  0.9600E+00
     -9.537  0.0000E+00  0.9600E+00
     -9.329  0.0000E+00  0.9600E+00
     -9.122  0.0000E+00  0.9600E+00
     -8.914  0.0000E+00  0.9600E+00
     -8.707  0.0000E+00  0.9600E+00
     -8.499  0.0000E+00  0.9600E+00
     -8.292  0.0000E+00  0.9600E+00
     -8.084  0.0000E+00  0.9600E+00
     -7.877  0.0000E+00  0.9600E+00
     -7.669  0.0000E+00  0.9600E+00
     -7.462  0.0000E+00  0.9600E+00
     -7.254  0.0000E+00  0.9600E+00
     -7.047  0.0000E+00  0.9600E+00
     -6.840  0.0000E+00  0.9600E+00
     -6.632  0.0000E+00  0.9600E+00
     -6.425  0.0000E+00  0.9600E+00
     -6.217  0.0000E+00  0.9600E+00
     -6.010  0.0000E+00  0.9600E+00
     -5.802  0.0000E+00  0.9600E+00
     -5.595  0.0000E+00  0.9600E+00
     -5.387  0.0000E+00  0.9600E+00
     -5.180  0.0000E+00  0.9600E+00
     -4.972  0.0000E+00  0.9600E+00
     -4.765  0.0000E+00  0.9600E+00
     -4.557  0.0000E+00  0.9600E+00
     -4.350  0.0000E+00  0.9600E+00
     -4.142  0.0000E+00  0.9600E+00
     -3.935  0.0000E+00  0.9600E+00
     -3.727  0.0000E+00  0.9600E+00
     -3.520  0.0000E+00  0.9600E+00
     -3.312  0.0000E+00  0.9600E+00
     -3.105  0.0000E+00  0.9600E+00
     -2.897  0.0000E+00  0.9600E+00
     -2.690  0.0000E+00  0.9600E+00
     -2.482  0.0000E+00  0.9600E+00
     -2.275 -0.1230E-33  0.9600E+00
     -2.067 -0.1756E-26  0.9600E+00
     -1.860 -0.2886E-20  0.9600E+00
     -1.652 -0.5282E-15  0.9600E+00
     -1.445 -0.1134E-10  0.9600E+00
     -1.237 -0.2766E-07  0.9600E+00
     -1.030 -0.7483E-05  0.9600E+00
     -0.823 -0.1969E-03  0.9600E+00
     -0.615  0.4814E-03  0.9601E+00
     -0.408  0.9020E-02  0.9619E+00
     -0.200  0.2340E-01  0.9668E+00
      0.007  0.3245E-01  0.9735E+00
      0.215  0.3052E-01  0.9799E+00
      0.422  0.1911E-01  0.9838E+00
      0.630  0.6603E-01  0.9975E+00
      0.837  0.6515E-01  0.1011E+01
      1.045  0.4844E-01  0.1021E+01
      1.252  0.5766E-01  0.1033E+01
      1.460  0.8269E-01  0.1050E+01
      1.667  0.7513E-01  0.1066E+01
      1.875  0.1049E+00  0.1088E+01
      2.082  0.1480E+00  0.1118E+01
      2.290  0.1873E+00  0.1157E+01
      2.497  0.2989E+00  0.1219E+01
      2.705  0.3739E+00  0.1297E+01
      2.912  0.4230E+00  0.1384E+01
      3.120  0.5165E+00  0.1492E+01
      3.327  0.5999E+00  0.1616E+01
      3.535  0.6071E+00  0.1742E+01
      3.742  0.6424E+00  0.1875E+01
      3.950  0.6256E+00  0.2005E+01
      4.157  0.5656E+00  0.2123E+01
      4.365  0.4696E+00  0.2220E+01
      4.572  0.5002E+00  0.2324E+01
      4.779  0.7322E+00  0.2476E+01
      4.987  0.8330E+00  0.2648E+01
      5.194  0.8193E+00  0.2818E+01
      5.402  0.7502E+00  0.2974E+01
      5.609  0.7598E+00  0.3132E+01
      5.817  0.7336E+00  0.3284E+01
      6.024  0.7536E+00  0.3440E+01
      6.232  0.8163E+00  0.3610E+01
      6.439  0.8077E+00  0.3777E+01
      6.647  0.7305E+00  0.3929E+01
      6.854  0.6353E+00  0.4061E+01
      7.062  0.4797E+00  0.4160E+01
      7.269  0.3880E+00  0.4241E+01
      7.477  0.3487E+00  0.4313E+01
      7.684  0.3147E+00  0.4378E+01
      7.892  0.3244E+00  0.4446E+01
      8.099  0.3671E+00  0.4522E+01
      8.307  0.4086E+00  0.4607E+01
      8.514  0.3948E+00  0.4689E+01
      8.722  0.2968E+00  0.4750E+01
      8.929  0.1649E+00  0.4784E+01
      9.137  0.6732E-01  0.4798E+01
      9.344  0.9648E-02  0.4800E+01
      9.552 -0.1200E-02  0.4800E+01
      9.759 -0.1702E-03  0.4800E+01
      9.967 -0.2050E-05  0.4800E+01
     10.174 -0.2777E-08  0.4800E+01
     10.382 -0.4336E-12  0.4800E+01
     10.589 -0.8219E-17  0.4800E+01
     10.796  0.0000E+00  0.4800E+01
     11.004  0.0000E+00  0.4800E+01
     11.211  0.0000E+00  0.4800E+01
     11.419  0.0000E+00  0.4800E+01
     11.626  0.0000E+00  0.4800E+01
     11.834  0.0000E+00  0.4800E+01
     12.041  0.0000E+00  0.4800E+01
