   29   29   50    1
  0.1679057E+02  0.5525242E-09  0.8287863E-09  0.1139058E-08  0.5000000E-15
  1.000000000000000E-004
  CAR 
 SQS with 1 vacancy for VFE and VRV      
    198     63    120
 
  0.0000000E+00  0.0000000E+00  0.0000000E+00  0.8000000E-02
    1      -47.373954   1.000000
    2      -47.331114   1.000000
    3      -47.283144   1.000000
    4      -47.224056   1.000000
    5      -47.142736   1.000000
    6      -47.129889   1.000000
    7      -24.031912   1.000000
    8      -23.896639   1.000000
    9      -23.728337   1.000000
   10      -23.694482   1.000000
   11      -23.544705   1.000000
   12      -23.516445   1.000000
   13      -23.497049   1.000000
   14      -23.467951   1.000000
   15      -23.442307   1.000000
   16      -23.385132   1.000000
   17      -23.346595   1.000000
   18      -23.330744   1.000000
   19      -23.323609   1.000000
   20      -23.292422   1.000000
   21      -23.232107   1.000000
   22      -23.069643   1.000000
   23      -23.011734   1.000000
   24      -22.801875   1.000000
   25       -0.571955   1.000000
   26        1.012604   1.000000
   27        1.042771   1.000000
   28        1.954260   1.000000
   29        2.022266   1.000000
   30        2.130585   1.000000
   31        2.270766   1.000000
   32        2.459502   1.000000
   33        2.491119   1.000000
   34        2.549023   1.000000
   35        2.596724   1.000000
   36        2.745817   1.000000
   37        2.810298   1.000000
   38        2.998009   1.000000
   39        3.053145   1.000000
   40        3.083428   1.000000
   41        3.132436   1.000000
   42        3.242601   1.000000
   43        3.282068   1.000000
   44        3.303466   1.000000
   45        3.409702   1.000000
   46        3.452088   1.000000
   47        3.558066   1.000000
   48        3.582160   1.000000
   49        3.631036   1.000000
   50        3.679231   1.000000
   51        3.747637   1.000000
   52        3.815197   1.000000
   53        3.867675   1.000000
   54        3.913814   1.000000
   55        4.107914   1.000000
   56        4.216732   1.000000
   57        4.289969   1.000000
   58        4.409540   1.000000
   59        4.500339   1.000000
   60        4.516315   1.000000
   61        4.632684   1.000000
   62        4.665218   1.000000
   63        4.690720   1.000000
   64        4.735608   1.000000
   65        4.836369   1.000000
   66        4.897208   1.000000
   67        4.907090   1.000000
   68        4.927995   1.000000
   69        4.993047   1.000000
   70        5.101249   1.000000
   71        5.139859   1.000000
   72        5.151344   1.000000
   73        5.206964   1.000000
   74        5.255682   1.000000
   75        5.344279   1.000000
   76        5.429508   1.000000
   77        5.470980   1.000000
   78        5.550248   1.000000
   79        5.560693   1.000000
   80        5.645395   1.000000
   81        5.813001   1.000000
   82        5.896484   1.000000
   83        5.936284   1.000001
   84        5.989193   1.000004
   85        6.026884   1.000013
   86        6.031352   1.000015
   87        6.099375   1.000113
   88        6.126941   1.000236
   89        6.219586   1.002072
   90        6.307162   1.010045
   91        6.431864   1.034599
   92        6.499882   1.020916
   93        6.611245   0.814655
   94        6.661084   0.631483
   95        6.723734   0.369964
   96        6.738473   0.311394
   97        6.808381   0.089646
   98        6.830661   0.043534
   99        6.922144  -0.034446
  100        6.966211  -0.032872
  101        7.092015  -0.008069
  102        7.162019  -0.002230
  103        7.298449  -0.000079
  104        7.441598  -0.000001
  105        7.515104  -0.000000
  106        7.652815  -0.000000
  107        7.773369  -0.000000
  108        7.911114  -0.000000
  109        7.932801  -0.000000
  110        8.030120  -0.000000
  111        8.345960  -0.000000
  112        8.521719  -0.000000
  113        8.551899  -0.000000
  114        8.609476  -0.000000
  115        8.749353  -0.000000
  116        8.811198  -0.000000
  117        8.963613  -0.000000
  118        8.969233  -0.000000
  119        9.014344  -0.000000
  120        9.134629  -0.000000
 
  0.2000000E+00 -0.1387779E-16  0.0000000E+00  0.1600000E-01
    1      -47.371426   1.000000
    2      -47.324819   1.000000
    3      -47.280628   1.000000
    4      -47.223420   1.000000
    5      -47.153591   1.000000
    6      -47.130064   1.000000
    7      -23.943437   1.000000
    8      -23.884724   1.000000
    9      -23.720741   1.000000
   10      -23.690872   1.000000
   11      -23.550670   1.000000
   12      -23.509764   1.000000
   13      -23.498067   1.000000
   14      -23.471312   1.000000
   15      -23.443681   1.000000
   16      -23.389085   1.000000
   17      -23.351130   1.000000
   18      -23.334145   1.000000
   19      -23.331422   1.000000
   20      -23.295873   1.000000
   21      -23.235130   1.000000
   22      -23.073109   1.000000
   23      -23.016721   1.000000
   24      -22.920682   1.000000
   25       -0.258054   1.000000
   26        1.266394   1.000000
   27        1.334212   1.000000
   28        2.014876   1.000000
   29        2.272920   1.000000
   30        2.354544   1.000000
   31        2.474594   1.000000
   32        2.561628   1.000000
   33        2.654238   1.000000
   34        2.716860   1.000000
   35        2.842882   1.000000
   36        2.892017   1.000000
   37        3.007432   1.000000
   38        3.055421   1.000000
   39        3.172462   1.000000
   40        3.198101   1.000000
   41        3.276118   1.000000
   42        3.341092   1.000000
   43        3.365972   1.000000
   44        3.426933   1.000000
   45        3.548647   1.000000
   46        3.588657   1.000000
   47        3.671517   1.000000
   48        3.705604   1.000000
   49        3.715004   1.000000
   50        3.811368   1.000000
   51        3.891946   1.000000
   52        3.921747   1.000000
   53        4.009623   1.000000
   54        4.081328   1.000000
   55        4.163402   1.000000
   56        4.294064   1.000000
   57        4.381744   1.000000
   58        4.471438   1.000000
   59        4.505897   1.000000
   60        4.622776   1.000000
   61        4.668083   1.000000
   62        4.708159   1.000000
   63        4.784269   1.000000
   64        4.860695   1.000000
   65        4.894760   1.000000
   66        4.938581   1.000000
   67        4.985866   1.000000
   68        5.060063   1.000000
   69        5.109902   1.000000
   70        5.163463   1.000000
   71        5.185135   1.000000
   72        5.223064   1.000000
   73        5.301987   1.000000
   74        5.360789   1.000000
   75        5.409205   1.000000
   76        5.450181   1.000000
   77        5.500622   1.000000
   78        5.514489   1.000000
   79        5.520998   1.000000
   80        5.589591   1.000000
   81        5.651976   1.000000
   82        5.763596   1.000000
   83        5.833397   1.000000
   84        5.914115   1.000000
   85        5.993322   1.000004
   86        6.040083   1.000020
   87        6.099658   1.000114
   88        6.185230   1.000981
   89        6.225310   1.002331
   90        6.265672   1.005053
   91        6.317621   1.011725
   92        6.346107   1.017158
   93        6.398605   1.028970
   94        6.476187   1.031677
   95        6.531643   0.991246
   96        6.575024   0.914473
   97        6.643278   0.701780
   98        6.758417   0.237472
   99        6.806530   0.094039
  100        6.844151   0.021545
  101        6.902154  -0.029406
  102        6.953040  -0.034626
  103        7.030863  -0.018925
  104        7.166238  -0.002044
  105        7.215537  -0.000683
  106        7.326192  -0.000035
  107        7.447158  -0.000001
  108        7.551464  -0.000000
  109        7.713544  -0.000000
  110        7.793242  -0.000000
  111        7.870002  -0.000000
  112        7.984734  -0.000000
  113        8.039587  -0.000000
  114        8.151471  -0.000000
  115        8.294307  -0.000000
  116        8.374554  -0.000000
  117        8.452373  -0.000000
  118        8.568929  -0.000000
  119        8.605272  -0.000000
  120        8.685450  -0.000000
 
  0.4000000E+00 -0.2775558E-16  0.0000000E+00  0.1600000E-01
    1      -47.368111   1.000000
    2      -47.313595   1.000000
    3      -47.272988   1.000000
    4      -47.222375   1.000000
    5      -47.174999   1.000000
    6      -47.130351   1.000000
    7      -23.907817   1.000000
    8      -23.746683   1.000000
    9      -23.695088   1.000000
   10      -23.610181   1.000000
   11      -23.556480   1.000000
   12      -23.504784   1.000000
   13      -23.496471   1.000000
   14      -23.472052   1.000000
   15      -23.440444   1.000000
   16      -23.395704   1.000000
   17      -23.369157   1.000000
   18      -23.341151   1.000000
   19      -23.339434   1.000000
   20      -23.301136   1.000000
   21      -23.259349   1.000000
   22      -23.200844   1.000000
   23      -23.077287   1.000000
   24      -23.022132   1.000000
   25        0.539065   1.000000
   26        1.764972   1.000000
   27        1.932729   1.000000
   28        2.113417   1.000000
   29        2.313847   1.000000
   30        2.530376   1.000000
   31        2.726415   1.000000
   32        2.853569   1.000000
   33        2.975280   1.000000
   34        3.058949   1.000000
   35        3.106507   1.000000
   36        3.147429   1.000000
   37        3.229701   1.000000
   38        3.334680   1.000000
   39        3.360473   1.000000
   40        3.445889   1.000000
   41        3.465254   1.000000
   42        3.529264   1.000000
   43        3.583134   1.000000
   44        3.647651   1.000000
   45        3.766669   1.000000
   46        3.857174   1.000000
   47        3.905501   1.000000
   48        3.991854   1.000000
   49        4.043286   1.000000
   50        4.151672   1.000000
   51        4.162390   1.000000
   52        4.231927   1.000000
   53        4.291390   1.000000
   54        4.354094   1.000000
   55        4.388738   1.000000
   56        4.477926   1.000000
   57        4.520030   1.000000
   58        4.566335   1.000000
   59        4.620814   1.000000
   60        4.715660   1.000000
   61        4.763739   1.000000
   62        4.774103   1.000000
   63        4.847885   1.000000
   64        4.862928   1.000000
   65        4.931696   1.000000
   66        4.944268   1.000000
   67        5.007132   1.000000
   68        5.046422   1.000000
   69        5.121382   1.000000
   70        5.159077   1.000000
   71        5.206624   1.000000
   72        5.253899   1.000000
   73        5.323353   1.000000
   74        5.366200   1.000000
   75        5.437829   1.000000
   76        5.483305   1.000000
   77        5.512925   1.000000
   78        5.580921   1.000000
   79        5.591932   1.000000
   80        5.628525   1.000000
   81        5.757659   1.000000
   82        5.777231   1.000000
   83        5.796121   1.000000
   84        5.841659   1.000000
   85        5.866907   1.000000
   86        5.947090   1.000001
   87        5.985409   1.000003
   88        6.064583   1.000042
   89        6.144197   1.000367
   90        6.183981   1.000953
   91        6.206469   1.001570
   92        6.244963   1.003440
   93        6.308110   1.010190
   94        6.332695   1.014452
   95        6.387902   1.026596
   96        6.421988   1.033342
   97        6.477416   1.031314
   98        6.526430   0.997509
   99        6.590846   0.874841
  100        6.599044   0.851854
  101        6.669168   0.598346
  102        6.742145   0.297271
  103        6.814457   0.075834
  104        6.896773  -0.027165
  105        6.922038  -0.034432
  106        6.978792  -0.030585
  107        7.023934  -0.020468
  108        7.054373  -0.014091
  109        7.126945  -0.004415
  110        7.294490  -0.000089
  111        7.498524  -0.000000
  112        7.572098  -0.000000
  113        7.661160  -0.000000
  114        7.777733  -0.000000
  115        7.861010  -0.000000
  116        7.896862  -0.000000
  117        8.009268  -0.000000
  118        8.218364  -0.000000
  119        8.275194  -0.000000
  120        8.389564  -0.000000
 
  0.0000000E+00  0.2000000E+00  0.1387779E-16  0.1600000E-01
    1      -47.373939   1.000000
    2      -47.331096   1.000000
    3      -47.283111   1.000000
    4      -47.223716   1.000000
    5      -47.142733   1.000000
    6      -47.130284   1.000000
    7      -24.031917   1.000000
    8      -23.895735   1.000000
    9      -23.725562   1.000000
   10      -23.692224   1.000000
   11      -23.544705   1.000000
   12      -23.516612   1.000000
   13      -23.497110   1.000000
   14      -23.468045   1.000000
   15      -23.442398   1.000000
   16      -23.385361   1.000000
   17      -23.346499   1.000000
   18      -23.330689   1.000000
   19      -23.323718   1.000000
   20      -23.292104   1.000000
   21      -23.232135   1.000000
   22      -23.072378   1.000000
   23      -23.016218   1.000000
   24      -22.801882   1.000000
   25       -0.429208   1.000000
   26        0.996536   1.000000
   27        1.184237   1.000000
   28        1.556373   1.000000
   29        2.065593   1.000000
   30        2.201233   1.000000
   31        2.301326   1.000000
   32        2.465460   1.000000
   33        2.538921   1.000000
   34        2.595098   1.000000
   35        2.617008   1.000000
   36        2.700957   1.000000
   37        2.766383   1.000000
   38        2.883442   1.000000
   39        2.968306   1.000000
   40        3.021321   1.000000
   41        3.122451   1.000000
   42        3.183340   1.000000
   43        3.259699   1.000000
   44        3.347884   1.000000
   45        3.425379   1.000000
   46        3.551374   1.000000
   47        3.588379   1.000000
   48        3.636144   1.000000
   49        3.663149   1.000000
   50        3.716767   1.000000
   51        3.792255   1.000000
   52        3.850499   1.000000
   53        3.899164   1.000000
   54        3.991810   1.000000
   55        4.080821   1.000000
   56        4.171574   1.000000
   57        4.276189   1.000000
   58        4.451920   1.000000
   59        4.478337   1.000000
   60        4.594869   1.000000
   61        4.689073   1.000000
   62        4.705428   1.000000
   63        4.744331   1.000000
   64        4.799296   1.000000
   65        4.854949   1.000000
   66        4.937951   1.000000
   67        4.974423   1.000000
   68        5.016674   1.000000
   69        5.040932   1.000000
   70        5.097244   1.000000
   71        5.111629   1.000000
   72        5.174586   1.000000
   73        5.267280   1.000000
   74        5.343535   1.000000
   75        5.385768   1.000000
   76        5.431560   1.000000
   77        5.484121   1.000000
   78        5.565807   1.000000
   79        5.646050   1.000000
   80        5.723486   1.000000
   81        5.786047   1.000000
   82        5.869703   1.000000
   83        5.892801   1.000000
   84        5.979614   1.000003
   85        6.020081   1.000011
   86        6.052692   1.000029
   87        6.071720   1.000052
   88        6.123975   1.000219
   89        6.158649   1.000525
   90        6.213376   1.001819
   91        6.301387   1.009192
   92        6.350566   1.018109
   93        6.472624   1.032625
   94        6.509761   1.013769
   95        6.541365   0.977951
   96        6.613995   0.805794
   97        6.735176   0.324243
   98        6.791748   0.132215
   99        6.843600   0.022359
  100        7.070255  -0.011274
  101        7.202889  -0.000917
  102        7.305302  -0.000065
  103        7.389712  -0.000005
  104        7.541605  -0.000000
  105        7.572933  -0.000000
  106        7.657537  -0.000000
  107        7.676195  -0.000000
  108        7.814610  -0.000000
  109        7.908735  -0.000000
  110        7.965007  -0.000000
  111        8.033761  -0.000000
  112        8.162558  -0.000000
  113        8.252247  -0.000000
  114        8.494989  -0.000000
  115        8.638917  -0.000000
  116        8.740475  -0.000000
  117        8.756729  -0.000000
  118        8.805570  -0.000000
  119        8.872661  -0.000000
  120        8.919200  -0.000000
 
  0.2000000E+00  0.2000000E+00 -0.4857226E-16  0.1600000E-01
    1      -47.371439   1.000000
    2      -47.324837   1.000000
    3      -47.280658   1.000000
    4      -47.223747   1.000000
    5      -47.153594   1.000000
    6      -47.129685   1.000000
    7      -23.943577   1.000000
    8      -23.885468   1.000000
    9      -23.724002   1.000000
   10      -23.692436   1.000000
   11      -23.550660   1.000000
   12      -23.509653   1.000000
   13      -23.498005   1.000000
   14      -23.471244   1.000000
   15      -23.443606   1.000000
   16      -23.389154   1.000000
   17      -23.351220   1.000000
   18      -23.334191   1.000000
   19      -23.331355   1.000000
   20      -23.295799   1.000000
   21      -23.235098   1.000000
   22      -23.070393   1.000000
   23      -23.012470   1.000000
   24      -22.920663   1.000000
   25       -0.252433   1.000000
   26        1.192816   1.000000
   27        1.379004   1.000000
   28        1.911653   1.000000
   29        2.289693   1.000000
   30        2.329474   1.000000
   31        2.416557   1.000000
   32        2.465928   1.000000
   33        2.654634   1.000000
   34        2.723360   1.000000
   35        2.773299   1.000000
   36        2.831055   1.000000
   37        2.966146   1.000000
   38        3.087600   1.000000
   39        3.173162   1.000000
   40        3.215876   1.000000
   41        3.254858   1.000000
   42        3.308319   1.000000
   43        3.412310   1.000000
   44        3.472792   1.000000
   45        3.523102   1.000000
   46        3.607047   1.000000
   47        3.651362   1.000000
   48        3.721931   1.000000
   49        3.741596   1.000000
   50        3.807530   1.000000
   51        3.880641   1.000000
   52        3.954760   1.000000
   53        4.018336   1.000000
   54        4.090663   1.000000
   55        4.167009   1.000000
   56        4.307450   1.000000
   57        4.349196   1.000000
   58        4.462110   1.000000
   59        4.538738   1.000000
   60        4.593639   1.000000
   61        4.693227   1.000000
   62        4.742895   1.000000
   63        4.805479   1.000000
   64        4.843888   1.000000
   65        4.869420   1.000000
   66        4.932970   1.000000
   67        4.969522   1.000000
   68        5.006893   1.000000
   69        5.030182   1.000000
   70        5.107070   1.000000
   71        5.126873   1.000000
   72        5.210899   1.000000
   73        5.264318   1.000000
   74        5.286511   1.000000
   75        5.351369   1.000000
   76        5.441317   1.000000
   77        5.451998   1.000000
   78        5.527504   1.000000
   79        5.570159   1.000000
   80        5.619561   1.000000
   81        5.719723   1.000000
   82        5.818838   1.000000
   83        5.839732   1.000000
   84        5.879273   1.000000
   85        5.940802   1.000001
   86        6.005422   1.000007
   87        6.043371   1.000022
   88        6.167940   1.000656
   89        6.224804   1.002307
   90        6.260435   1.004597
   91        6.311396   1.010704
   92        6.393758   1.027912
   93        6.429384   1.034327
   94        6.505661   1.016946
   95        6.561794   0.942763
   96        6.606749   0.828767
   97        6.687739   0.520510
   98        6.756399   0.244622
   99        6.854408   0.007659
  100        6.914527  -0.033085
  101        6.944265  -0.035291
  102        7.007571  -0.024227
  103        7.067609  -0.011716
  104        7.174856  -0.001705
  105        7.251370  -0.000282
  106        7.346396  -0.000019
  107        7.507246  -0.000000
  108        7.602721  -0.000000
  109        7.664660  -0.000000
  110        7.744080  -0.000000
  111        7.783614  -0.000000
  112        7.867596  -0.000000
  113        8.355630  -0.000000
  114        8.409992  -0.000000
  115        8.601212  -0.000000
  116        8.653030  -0.000000
  117        8.763240  -0.000000
  118        8.871167  -0.000000
  119        8.915069  -0.000000
  120        9.005326  -0.000000
 
  0.4000000E+00  0.2000000E+00 -0.5551115E-16  0.1600000E-01
    1      -47.368135   1.000000
    2      -47.313633   1.000000
    3      -47.273028   1.000000
    4      -47.222914   1.000000
    5      -47.175004   1.000000
    6      -47.129724   1.000000
    7      -23.909029   1.000000
    8      -23.748713   1.000000
    9      -23.701313   1.000000
   10      -23.610129   1.000000
   11      -23.556593   1.000000
   12      -23.504632   1.000000
   13      -23.496348   1.000000
   14      -23.471949   1.000000
   15      -23.440267   1.000000
   16      -23.395714   1.000000
   17      -23.369097   1.000000
   18      -23.341221   1.000000
   19      -23.339574   1.000000
   20      -23.301137   1.000000
   21      -23.259298   1.000000
   22      -23.200796   1.000000
   23      -23.071525   1.000000
   24      -23.016286   1.000000
   25        0.455611   1.000000
   26        1.723372   1.000000
   27        1.821188   1.000000
   28        2.038233   1.000000
   29        2.147880   1.000000
   30        2.477494   1.000000
   31        2.694710   1.000000
   32        2.891883   1.000000
   33        2.996018   1.000000
   34        3.093103   1.000000
   35        3.162535   1.000000
   36        3.221125   1.000000
   37        3.323398   1.000000
   38        3.377508   1.000000
   39        3.432464   1.000000
   40        3.461344   1.000000
   41        3.501838   1.000000
   42        3.536728   1.000000
   43        3.625884   1.000000
   44        3.685011   1.000000
   45        3.718056   1.000000
   46        3.769111   1.000000
   47        3.867127   1.000000
   48        3.907097   1.000000
   49        4.018466   1.000000
   50        4.080422   1.000000
   51        4.124315   1.000000
   52        4.151579   1.000000
   53        4.188354   1.000000
   54        4.249365   1.000000
   55        4.314401   1.000000
   56        4.413891   1.000000
   57        4.479696   1.000000
   58        4.571956   1.000000
   59        4.619213   1.000000
   60        4.673226   1.000000
   61        4.757506   1.000000
   62        4.787623   1.000000
   63        4.824073   1.000000
   64        4.881867   1.000000
   65        4.900097   1.000000
   66        4.994037   1.000000
   67        5.052248   1.000000
   68        5.086658   1.000000
   69        5.126981   1.000000
   70        5.183808   1.000000
   71        5.216589   1.000000
   72        5.263949   1.000000
   73        5.299835   1.000000
   74        5.368989   1.000000
   75        5.448860   1.000000
   76        5.464188   1.000000
   77        5.475903   1.000000
   78        5.552787   1.000000
   79        5.600944   1.000000
   80        5.668150   1.000000
   81        5.724651   1.000000
   82        5.765644   1.000000
   83        5.810493   1.000000
   84        5.864970   1.000000
   85        5.906082   1.000000
   86        5.950763   1.000001
   87        6.018466   1.000010
   88        6.043955   1.000022
   89        6.086535   1.000079
   90        6.118498   1.000189
   91        6.201504   1.001410
   92        6.220149   1.002096
   93        6.245735   1.003492
   94        6.286090   1.007188
   95        6.356119   1.019323
   96        6.403121   1.029922
   97        6.423366   1.033544
   98        6.476999   1.031439
   99        6.538234   0.982467
  100        6.586473   0.886423
  101        6.649675   0.677023
  102        6.709118   0.430316
  103        6.766556   0.209480
  104        6.842118   0.024582
  105        6.877231  -0.015215
  106        7.020808  -0.021177
  107        7.157372  -0.002452
  108        7.232907  -0.000449
  109        7.381722  -0.000006
  110        7.509781  -0.000000
  111        7.646016  -0.000000
  112        7.810433  -0.000000
  113        7.949138  -0.000000
  114        8.019186  -0.000000
  115        8.123581  -0.000000
  116        8.235687  -0.000000
  117        8.349508  -0.000000
  118        8.399109  -0.000000
  119        8.445826  -0.000000
  120        8.490105  -0.000000
 
 -0.4000000E+00  0.2000000E+00 -0.3908332E-16  0.1600000E-01
    1      -47.368110   1.000000
    2      -47.313594   1.000000
    3      -47.272988   1.000000
    4      -47.222368   1.000000
    5      -47.174999   1.000000
    6      -47.130360   1.000000
    7      -23.907801   1.000000
    8      -23.746676   1.000000
    9      -23.695021   1.000000
   10      -23.610183   1.000000
   11      -23.556463   1.000000
   12      -23.504802   1.000000
   13      -23.496495   1.000000
   14      -23.472081   1.000000
   15      -23.440446   1.000000
   16      -23.395849   1.000000
   17      -23.369156   1.000000
   18      -23.341165   1.000000
   19      -23.339407   1.000000
   20      -23.300959   1.000000
   21      -23.259339   1.000000
   22      -23.200840   1.000000
   23      -23.077318   1.000000
   24      -23.022240   1.000000
   25        0.797525   1.000000
   26        1.507765   1.000000
   27        1.822402   1.000000
   28        2.181258   1.000000
   29        2.276789   1.000000
   30        2.540634   1.000000
   31        2.690718   1.000000
   32        2.835138   1.000000
   33        2.903476   1.000000
   34        3.032613   1.000000
   35        3.113055   1.000000
   36        3.132260   1.000000
   37        3.190273   1.000000
   38        3.250684   1.000000
   39        3.332658   1.000000
   40        3.450033   1.000000
   41        3.469054   1.000000
   42        3.560647   1.000000
   43        3.622935   1.000000
   44        3.702952   1.000000
   45        3.781507   1.000000
   46        3.858871   1.000000
   47        3.948747   1.000000
   48        4.011566   1.000000
   49        4.093104   1.000000
   50        4.110305   1.000000
   51        4.207066   1.000000
   52        4.257929   1.000000
   53        4.325393   1.000000
   54        4.371065   1.000000
   55        4.412119   1.000000
   56        4.488145   1.000000
   57        4.543242   1.000000
   58        4.603849   1.000000
   59        4.669695   1.000000
   60        4.721912   1.000000
   61        4.771633   1.000000
   62        4.790610   1.000000
   63        4.827462   1.000000
   64        4.858407   1.000000
   65        4.930945   1.000000
   66        4.962328   1.000000
   67        4.989629   1.000000
   68        5.016524   1.000000
   69        5.059345   1.000000
   70        5.124469   1.000000
   71        5.176427   1.000000
   72        5.224614   1.000000
   73        5.326652   1.000000
   74        5.350443   1.000000
   75        5.397040   1.000000
   76        5.418060   1.000000
   77        5.501255   1.000000
   78        5.568569   1.000000
   79        5.589246   1.000000
   80        5.637480   1.000000
   81        5.682135   1.000000
   82        5.726417   1.000000
   83        5.825586   1.000000
   84        5.869703   1.000000
   85        5.910991   1.000000
   86        5.961515   1.000002
   87        5.995550   1.000005
   88        6.065145   1.000042
   89        6.095496   1.000101
   90        6.158792   1.000527
   91        6.182653   1.000925
   92        6.244887   1.003435
   93        6.307764   1.010137
   94        6.320571   1.012231
   95        6.398058   1.028853
   96        6.434556   1.034855
   97        6.489608   1.026605
   98        6.540174   0.979695
   99        6.604200   0.836562
  100        6.645453   0.693433
  101        6.693898   0.494454
  102        6.762054   0.224795
  103        6.813399   0.078171
  104        6.839743   0.028254
  105        6.920019  -0.034130
  106        7.010012  -0.023662
  107        7.066492  -0.011906
  108        7.138700  -0.003541
  109        7.255842  -0.000251
  110        7.312843  -0.000052
  111        7.376157  -0.000007
  112        7.475994  -0.000000
  113        7.653412  -0.000000
  114        7.840055  -0.000000
  115        8.056899  -0.000000
  116        8.110275  -0.000000
  117        8.189818  -0.000000
  118        8.251970  -0.000000
  119        8.293608  -0.000000
  120        8.326101  -0.000000
 
 -0.2000000E+00  0.2000000E+00  0.1006140E-15  0.1600000E-01
    1      -47.371401   1.000000
    2      -47.324789   1.000000
    3      -47.280579   1.000000
    4      -47.222867   1.000000
    5      -47.153586   1.000000
    6      -47.130707   1.000000
    7      -23.943215   1.000000
    8      -23.883528   1.000000
    9      -23.716071   1.000000
   10      -23.687259   1.000000
   11      -23.550595   1.000000
   12      -23.510012   1.000000
   13      -23.498181   1.000000
   14      -23.471439   1.000000
   15      -23.443840   1.000000
   16      -23.389364   1.000000
   17      -23.351012   1.000000
   18      -23.334010   1.000000
   19      -23.331544   1.000000
   20      -23.295497   1.000000
   21      -23.235180   1.000000
   22      -23.078586   1.000000
   23      -23.023149   1.000000
   24      -22.920697   1.000000
   25        0.002118   1.000000
   26        1.146640   1.000000
   27        1.528741   1.000000
   28        1.716848   1.000000
   29        2.206072   1.000000
   30        2.442454   1.000000
   31        2.543757   1.000000
   32        2.639589   1.000000
   33        2.716914   1.000000
   34        2.784212   1.000000
   35        2.820109   1.000000
   36        2.908645   1.000000
   37        2.948480   1.000000
   38        3.004553   1.000000
   39        3.083887   1.000000
   40        3.142716   1.000000
   41        3.200822   1.000000
   42        3.281511   1.000000
   43        3.334710   1.000000
   44        3.397829   1.000000
   45        3.500416   1.000000
   46        3.515980   1.000000
   47        3.624288   1.000000