       N       E                     dE             d eps       ncg     rms          rms(c)
DAV:   1     0.215445910184E+04    0.21545E+04   -0.91372E+04 15120   0.175E+03
DAV:   2     0.736550981202E+02   -0.20808E+04   -0.20185E+04 15184   0.518E+02
DAV:   3    -0.299377094207E+03   -0.37303E+03   -0.35479E+03 26424   0.182E+02
DAV:   4    -0.345727753371E+03   -0.46351E+02   -0.42798E+02 23416   0.598E+01
DAV:   5    -0.350736591832E+03   -0.50088E+01   -0.48827E+01 28664   0.220E+01    0.740E+01
DAV:   6    -0.341836123812E+03    0.89005E+01   -0.12590E+02 21376   0.303E+01    0.371E+01
DAV:   7    -0.353574113123E+03   -0.11738E+02   -0.41704E+02 21488   0.812E+01    0.263E+01
DAV:   8    -0.339762181084E+03    0.13812E+02   -0.64782E+01 22312   0.240E+01    0.169E+01
DAV:   9    -0.333042193681E+03    0.67200E+01   -0.19386E+01 22896   0.142E+01    0.123E+01
DAV:  10    -0.330058090745E+03    0.29841E+01   -0.72165E+00 22016   0.719E+00    0.903E+00
DAV:  11    -0.328716974136E+03    0.13411E+01   -0.44781E+00 22376   0.584E+00    0.437E+00
DAV:  12    -0.328578019753E+03    0.13895E+00   -0.15773E+00 22640   0.391E+00    0.331E+00
DAV:  13    -0.328491671576E+03    0.86348E-01   -0.13849E+00 21656   0.362E+00    0.186E+00
DAV:  14    -0.328461878332E+03    0.29793E-01   -0.53020E-01 23088   0.225E+00    0.111E+00
DAV:  15    -0.328454651550E+03    0.72268E-02   -0.25089E-01 22112   0.146E+00    0.875E-01
DAV:  16    -0.328452555222E+03    0.20963E-02   -0.77921E-02 23424   0.825E-01    0.681E-01
DAV:  17    -0.328446800911E+03    0.57543E-02   -0.28536E-02 21424   0.546E-01    0.321E-01
DAV:  18    -0.328445998970E+03    0.80194E-03   -0.15121E-02 21464   0.351E-01    0.215E-01
DAV:  19    -0.328445495077E+03    0.50389E-03   -0.58289E-03 20808   0.225E-01    0.772E-02
DAV:  20    -0.328445502130E+03   -0.70526E-05   -0.84031E-04 17976   0.909E-02
   1 F= -.32844550E+03 E0= -.32844045E+03  d E =-.328446E+03
       N       E                     dE             d eps       ncg     rms          rms(c)
DAV:   1    -0.329476717762E+03   -0.10312E+01   -0.11544E+02 15312   0.425E+01    0.103E+01
DAV:   2    -0.329720896594E+03   -0.24418E+00   -0.15355E+01 22448   0.166E+01    0.689E+00
DAV:   3    -0.329381052619E+03    0.33984E+00   -0.97165E+00 22440   0.953E+00    0.607E+00
DAV:   4    -0.329037580936E+03    0.34347E+00   -0.53133E+00 23088   0.771E+00    0.336E+00
DAV:   5    -0.328832321174E+03    0.20526E+00   -0.15231E+00 22520   0.457E+00    0.178E+00
DAV:   6    -0.328796358385E+03    0.35963E-01   -0.59223E-01 23904   0.236E+00    0.129E+00
DAV:   7    -0.328790131465E+03    0.62269E-02   -0.21904E-01 24800   0.144E+00    0.926E-01
DAV:   8    -0.328788895519E+03    0.12359E-02   -0.85022E-02 23336   0.893E-01    0.734E-01
DAV:   9    -0.328788644104E+03    0.25142E-03   -0.41820E-02 22384   0.550E-01    0.498E-01
DAV:  10    -0.328791837251E+03   -0.31931E-02   -0.20202E-02 23640   0.428E-01    0.335E-01
DAV:  11    -0.328792819057E+03   -0.98181E-03   -0.15888E-02 22848   0.379E-01    0.225E-01
DAV:  12    -0.328792744524E+03    0.74533E-04   -0.70304E-03 21936   0.239E-01    0.104E-01
DAV:  13    -0.328792853129E+03   -0.10861E-03   -0.17937E-03 21680   0.127E-01    0.613E-02
DAV:  14    -0.328792856368E+03   -0.32387E-05   -0.69154E-04 16680   0.884E-02
   2 F= -.32879286E+03 E0= -.32878794E+03  d E =-.347354E+00
       N       E                     dE             d eps       ncg     rms          rms(c)
DAV:   1    -0.328840605232E+03   -0.47752E-01   -0.44329E+00 15480   0.834E+00    0.207E+00
DAV:   2    -0.328848390998E+03   -0.77858E-02   -0.54442E-01 23368   0.312E+00    0.146E+00
DAV:   3    -0.328848053176E+03    0.33782E-03   -0.47256E-01 22840   0.218E+00    0.131E+00
DAV:   4    -0.328824834129E+03    0.23219E-01   -0.17946E-01 23544   0.143E+00    0.612E-01
DAV:   5    -0.328817482533E+03    0.73516E-02   -0.61507E-02 22592   0.921E-01    0.362E-01
DAV:   6    -0.328816400790E+03    0.10817E-02   -0.27306E-02 23000   0.516E-01    0.274E-01
DAV:   7    -0.328815759761E+03    0.64103E-03   -0.93046E-03 21944   0.299E-01    0.178E-01
DAV:   8    -0.328815692445E+03    0.67316E-04   -0.34799E-03 20632   0.180E-01    0.136E-01
DAV:   9    -0.328815676662E+03    0.15783E-04   -0.16816E-03 19616   0.114E-01    0.918E-02
DAV:  10    -0.328815771353E+03   -0.94691E-04   -0.75715E-04 16936   0.877E-02
   3 F= -.32881577E+03 E0= -.32881091E+03  d E =-.370269E+00
       N       E                     dE             d eps       ncg     rms          rms(c)
DAV:   1    -0.329057140815E+03   -0.24146E+00   -0.54126E+01 15120   0.245E+01    0.380E+00
DAV:   2    -0.329208748276E+03   -0.15161E+00   -0.41488E+00 21888   0.790E+00    0.288E+00
DAV:   3    -0.329179901675E+03    0.28847E-01   -0.18570E+00 22944   0.440E+00    0.209E+00
DAV:   4    -0.329115159088E+03    0.64743E-01   -0.47723E-01 22968   0.233E+00    0.118E+00
DAV:   5    -0.329102386766E+03    0.12772E-01   -0.20698E-01 22624   0.160E+00    0.864E-01
DAV:   6    -0.329095667884E+03    0.67189E-02   -0.13827E-01 22904   0.116E+00    0.598E-01
DAV:   7    -0.329092215084E+03    0.34528E-02   -0.48216E-02 24288   0.679E-01    0.400E-01
DAV:   8    -0.329091429763E+03    0.78532E-03   -0.14663E-02 23096   0.361E-01    0.290E-01
DAV:   9    -0.329091250465E+03    0.17930E-03   -0.49112E-03 21592   0.209E-01    0.217E-01
DAV:  10    -0.329091460820E+03   -0.21035E-03   -0.21048E-03 20136   0.151E-01    0.144E-01
DAV:  11    -0.329091665582E+03   -0.20476E-03   -0.24220E-03 21176   0.157E-01    0.905E-02
DAV:  12    -0.329091581460E+03    0.84122E-04   -0.18749E-03 19856   0.136E-01    0.524E-02
DAV:  13    -0.329091529477E+03    0.51983E-04   -0.37542E-04 12952   0.721E-02
   4 F= -.32909153E+03 E0= -.32908619E+03  d E =-.275758E+00
       N       E                     dE             d eps       ncg     rms          rms(c)
DAV:   1    -0.329107593013E+03   -0.16012E-01   -0.74701E+00 15120   0.907E+00    0.137E+00
DAV:   2    -0.329129097955E+03   -0.21505E-01   -0.58549E-01 21648   0.297E+00    0.108E+00
DAV:   3    -0.329122417490E+03    0.66805E-02   -0.25357E-01 22496   0.161E+00    0.752E-01
DAV:   4    -0.329114699658E+03    0.77178E-02   -0.62605E-02 22792   0.863E-01    0.448E-01
DAV:   5    -0.329112942682E+03    0.17570E-02   -0.30330E-02 22560   0.601E-01    0.332E-01
DAV:   6    -0.329111937367E+03    0.10053E-02   -0.19808E-02 23096   0.430E-01    0.232E-01
DAV:   7    -0.329111483648E+03    0.45372E-03   -0.74200E-03 22264   0.260E-01    0.163E-01
DAV:   8    -0.329111271577E+03    0.21207E-03   -0.22345E-03 20320   0.145E-01    0.106E-01
DAV:   9    -0.329111249645E+03    0.21932E-04   -0.61492E-04 16064   0.802E-02
   5 F= -.32911125E+03 E0= -.32910570E+03  d E =-.295478E+00
       N       E                     dE             d eps       ncg     rms          rms(c)
DAV:   1    -0.329146196587E+03   -0.34925E-01   -0.30404E+00 15120   0.600E+00    0.110E+00
DAV:   2    -0.329160460385E+03   -0.14264E-01   -0.27444E-01 21784   0.207E+00    0.951E-01
DAV:   3    -0.329153660185E+03    0.68002E-02   -0.16242E-01 22664   0.131E+00    0.657E-01
DAV:   4    -0.329149107885E+03    0.45523E-02   -0.48837E-02 21832   0.757E-01    0.387E-01
DAV:   5    -0.329146780563E+03    0.23273E-02   -0.27208E-02 22336   0.527E-01    0.201E-01
DAV:   6    -0.329146223876E+03    0.55669E-03   -0.77811E-03 23512   0.271E-01    0.130E-01
DAV:   7    -0.329146211537E+03    0.12339E-04   -0.27462E-03 20368   0.156E-01    0.105E-01
DAV:   8    -0.329146143261E+03    0.68276E-04   -0.86203E-04 16880   0.936E-02
   6 F= -.32914614E+03 E0= -.32914064E+03  d E =-.348936E-01
       N       E                     dE             d eps       ncg     rms          rms(c)
DAV:   1    -0.329154951444E+03   -0.87399E-02   -0.59969E+00 15120   0.842E+00    0.155E+00
DAV:   2    -0.329183480740E+03   -0.28529E-01   -0.53812E-01 21824   0.289E+00    0.135E+00
DAV:   3    -0.329170143849E+03    0.13337E-01   -0.32284E-01 23096   0.184E+00    0.923E-01
DAV:   4    -0.329161131645E+03    0.90122E-02   -0.95140E-02 22704   0.105E+00    0.542E-01
DAV:   5    -0.329156586136E+03    0.45455E-02   -0.53325E-02 22360   0.736E-01    0.287E-01
DAV:   6    -0.329155490720E+03    0.10954E-02   -0.15737E-02 24032   0.387E-01    0.192E-01
DAV:   7    -0.329155444353E+03    0.46367E-04   -0.60022E-03 21344   0.228E-01    0.155E-01
DAV:   8    -0.329155279097E+03    0.16526E-03   -0.17813E-03 19784   0.131E-01    0.106E-01
DAV:   9    -0.329155289457E+03   -0.10359E-04   -0.42522E-04 13136   0.780E-02
   7 F= -.32915529E+03 E0= -.32914995E+03  d E =-.440398E-01
       N       E                     dE             d eps       ncg     rms          rms(c)
DAV:   1    -0.329157441404E+03   -0.21623E-02   -0.49215E-01 15120   0.241E+00    0.440E-01
DAV:   2    -0.329160307674E+03   -0.28663E-02   -0.50023E-02 21888   0.865E-01    0.410E-01
DAV:   3    -0.329158574797E+03    0.17329E-02   -0.27897E-02 23248   0.530E-01    0.265E-01
DAV:   4    -0.329157965853E+03    0.60894E-03   -0.74787E-03 21240   0.291E-01    0.170E-01
DAV:   5    -0.329157580590E+03    0.38526E-03   -0.46503E-03 22168   0.217E-01    0.902E-02
DAV:   6    -0.329157487463E+03    0.93127E-04   -0.18173E-03 20512   0.132E-01    0.683E-02
DAV:   7    -0.329157446054E+03    0.41409E-04   -0.84019E-04 17080   0.914E-02
   8 F= -.32915745E+03 E0= -.32915205E+03  d E =-.461964E-01
       N       E                     dE             d eps       ncg     rms          rms(c)
DAV:   1    -0.329182746231E+03   -0.25259E-01   -0.17013E+00 15120   0.475E+00    0.101E+00
DAV:   2    -0.329184802423E+03   -0.20562E-02   -0.15270E-01 21992   0.156E+00    0.605E-01
DAV:   3    -0.329185930695E+03   -0.11283E-02   -0.96466E-02 21840   0.101E+00    0.617E-01
DAV:   4    -0.329180413376E+03    0.55173E-02   -0.47814E-02 22464   0.714E-01    0.324E-01
DAV:   5    -0.329178854169E+03    0.15592E-02   -0.19225E-02 22496   0.445E-01    0.188E-01
DAV:   6    -0.329178413639E+03    0.44053E-03   -0.56898E-03 23160   0.243E-01    0.120E-01
DAV:   7    -0.329178399098E+03    0.14541E-04   -0.26085E-03 20384   0.152E-01    0.923E-02
DAV:   8    -0.329178353682E+03    0.45416E-04   -0.74848E-04 16784   0.907E-02
   9 F= -.32917835E+03 E0= -.32917300E+03  d E =-.209076E-01
       N       E                     dE             d eps       ncg     rms          rms(c)
DAV:   1    -0.329194252172E+03   -0.15853E-01   -0.28321E+00 15120   0.612E+00    0.131E+00
DAV:   2    -0.329197045606E+03   -0.27934E-02   -0.25592E-01 21768   0.203E+00    0.775E-01
DAV:   3    -0.329198533379E+03   -0.14878E-02   -0.15967E-01 22080   0.130E+00    0.772E-01
DAV:   4    -0.329189687732E+03    0.88456E-02   -0.75787E-02 22168   0.906E-01    0.409E-01
DAV:   5    -0.329187462351E+03    0.22254E-02   -0.31551E-02 22528   0.566E-01    0.253E-01
DAV:   6    -0.329186625765E+03    0.83659E-03   -0.94579E-03 23192   0.309E-01    0.154E-01
DAV:   7    -0.329186660455E+03   -0.34690E-04   -0.40139E-03 21360   0.189E-01    0.126E-01
DAV:   8    -0.329186598422E+03    0.62033E-04   -0.13128E-03 19496   0.115E-01    0.879E-02
DAV:   9    -0.329186623622E+03   -0.25201E-04   -0.33448E-04 12168   0.679E-02
  10 F= -.32918662E+03 E0= -.32918130E+03  d E =-.291776E-01
       N       E                     dE             d eps       ncg     rms          rms(c)
DAV:   1    -0.329195657139E+03   -0.90587E-02   -0.56153E-01 16632   0.234E+00    0.179E-01
DAV:   2    -0.329197885936E+03   -0.22288E-02   -0.24643E-02 24160   0.694E-01    0.248E-01
DAV:   3    -0.329196987211E+03    0.89872E-03   -0.91458E-03 23088   0.318E-01    0.123E-01
DAV:   4    -0.329196872053E+03    0.11516E-03   -0.16528E-03 20688   0.132E-01    0.829E-02
DAV:   5    -0.329196812647E+03    0.59406E-04   -0.68832E-04 15656   0.964E-02
  11 F= -.32919681E+03 E0= -.32919161E+03  d E =-.101890E-01
       N       E                     dE             d eps       ncg     rms          rms(c)
DAV:   1    -0.329207993931E+03   -0.11122E-01   -0.50413E+00 16632   0.701E+00    0.517E-01
DAV:   2    -0.329227096586E+03   -0.19103E-01   -0.21538E-01 24128   0.205E+00    0.701E-01
DAV:   3    -0.329219852651E+03    0.72439E-02   -0.72712E-02 23560   0.912E-01    0.354E-01
DAV:   4    -0.329218956970E+03    0.89568E-03   -0.14580E-02 23960   0.379E-01    0.241E-01
DAV:   5    -0.329218368085E+03    0.58888E-03   -0.68621E-03 21656   0.266E-01    0.181E-01
DAV:   6    -0.329218291199E+03    0.76886E-04   -0.59143E-03 20568   0.233E-01    0.163E-01
DAV:   7    -0.329217901822E+03    0.38938E-03   -0.27906E-03 19760   0.170E-01    0.729E-02
DAV:   8    -0.329217820276E+03    0.81546E-04   -0.91535E-04 17392   0.109E-01
  12 F= -.32921782E+03 E0= -.32921304E+03  d E =-.311967E-01
       N       E                     dE             d eps       ncg     rms          rms(c)
DAV:   1    -0.329174918931E+03    0.42983E-01   -0.20151E+01 16632   0.140E+01    0.102E+00
DAV:   2    -0.329245533486E+03   -0.70615E-01   -0.83126E-01 24128   0.408E+00    0.127E+00
DAV:   3    -0.329225104953E+03    0.20429E-01   -0.25902E-01 23856   0.172E+00    0.717E-01
DAV:   4    -0.329220579590E+03    0.45254E-02   -0.56187E-02 24168   0.742E-01    0.464E-01
DAV:   5    -0.329218543078E+03    0.20365E-02   -0.22143E-02 22568   0.481E-01    0.351E-01
DAV:   6    -0.329218436710E+03    0.10637E-03   -0.21413E-02 23248   0.441E-01    0.326E-01
DAV:   7    -0.329217001449E+03    0.14353E-02   -0.11402E-02 23648   0.334E-01    0.159E-01
DAV:   8    -0.329216591123E+03    0.41033E-03   -0.37767E-03 20424   0.206E-01    0.918E-02
DAV:   9    -0.329216462172E+03    0.12895E-03   -0.12720E-03 18856   0.102E-01    0.367E-02
DAV:  10    -0.329216451956E+03    0.10216E-04   -0.15155E-04 10496   0.532E-02
  13 F= -.32921645E+03 E0= -.32921263E+03  d E =-.298283E-01
       N       E                     dE             d eps       ncg     rms          rms(c)
DAV:   1    -0.329212555732E+03    0.39064E-02   -0.58628E+00 16632   0.756E+00    0.586E-01
DAV:   2    -0.329234583006E+03   -0.22027E-01   -0.25182E-01 24152   0.220E+00    0.726E-01
DAV:   3    -0.329227210157E+03    0.73728E-02   -0.84267E-02 24152   0.957E-01    0.402E-01
DAV:   4    -0.329225847797E+03    0.13624E-02   -0.18343E-02 23320   0.426E-01    0.259E-01
DAV:   5    -0.329225103505E+03    0.74429E-03   -0.68208E-03 21592   0.273E-01    0.185E-01
DAV:   6    -0.329225085770E+03    0.17734E-04   -0.63913E-03 20760   0.242E-01    0.178E-01
DAV:   7    -0.329224629700E+03    0.45607E-03   -0.33886E-03 20096   0.186E-01    0.803E-02
DAV:   8    -0.329224519556E+03    0.11014E-03   -0.10104E-03 17632   0.115E-01    0.450E-02
DAV:   9    -0.329224486908E+03    0.32648E-04   -0.28830E-04 12240   0.661E-02
  14 F= -.32922449E+03 E0= -.32922013E+03  d E =-.378633E-01
       N       E                     dE             d eps       ncg     rms          rms(c)
DAV:   1    -0.329237022470E+03   -0.12503E-01   -0.10485E+00 16576   0.430E+00    0.112E+00
DAV:   2    -0.329236385277E+03    0.63719E-03   -0.14471E-01 24296   0.161E+00    0.693E-01
DAV:   3    -0.329236078493E+03    0.30678E-03   -0.12620E-01 22888   0.110E+00    0.627E-01
DAV:   4    -0.329229858978E+03    0.62195E-02   -0.48704E-02 23656   0.711E-01    0.280E-01
DAV:   5    -0.329228855014E+03    0.10040E-02   -0.15943E-02 22448   0.426E-01    0.205E-01
DAV:   6    -0.329228265092E+03    0.58992E-03   -0.55409E-03 22552   0.245E-01    0.107E-01
DAV:   7    -0.329228291029E+03   -0.25937E-04   -0.13986E-03 20168   0.116E-01    0.811E-02
DAV:   8    -0.329228289558E+03    0.14710E-05   -0.51449E-04 14904   0.763E-02
  15 F= -.32922829E+03 E0= -.32922402E+03  d E =-.380265E-02
       N       E                     dE             d eps       ncg     rms          rms(c)
DAV:   1    -0.329228546761E+03   -0.25573E-03   -0.14618E-02 16552   0.510E-01    0.150E-01
DAV:   2    -0.329228836737E+03   -0.28998E-03   -0.43118E-03 23112   0.250E-01    0.147E-01
DAV:   3    -0.329228563251E+03    0.27349E-03   -0.30386E-03 19912   0.169E-01    0.898E-02
DAV:   4    -0.329228512159E+03    0.51093E-04   -0.67159E-04 15128   0.900E-02
  16 F= -.32922851E+03 E0= -.32922421E+03  d E =-.402525E-02
       N       E                     dE             d eps       ncg     rms          rms(c)
DAV:   1    -0.329231182621E+03   -0.26194E-02   -0.42548E-01 15968   0.209E+00    0.201E-01
DAV:   2    -0.329232422711E+03   -0.12401E-02   -0.20894E-02 24504   0.617E-01    0.163E-01
DAV:   3    -0.329232311553E+03    0.11116E-03   -0.57413E-03 21536   0.232E-01    0.129E-01
DAV:   4    -0.329232087544E+03    0.22401E-03   -0.17376E-03 19912   0.134E-01    0.696E-02
DAV:   5    -0.329232075763E+03    0.11782E-04   -0.63064E-04 15296   0.906E-02
  17 F= -.32923208E+03 E0= -.32922779E+03  d E =-.356360E-02
       N       E                     dE             d eps       ncg     rms          rms(c)
DAV:   1    -0.329227841107E+03    0.42464E-02   -0.33704E+00 16144   0.589E+00    0.561E-01
DAV:   2    -0.329238469659E+03   -0.10629E-01   -0.16734E-01 24704   0.175E+00    0.502E-01
DAV:   3    -0.329237362857E+03    0.11068E-02   -0.50818E-02 23320   0.669E-01    0.387E-01
DAV:   4    -0.329235590957E+03    0.17719E-02   -0.13542E-02 22840   0.385E-01    0.230E-01
DAV:   5    -0.329235293267E+03    0.29769E-03   -0.76246E-03 21776   0.276E-01    0.182E-01
DAV:   6    -0.329234869990E+03    0.42328E-03   -0.39143E-03 22168   0.205E-01    0.955E-02
DAV:   7    -0.329234747995E+03    0.12200E-03   -0.14443E-03 19040   0.131E-01    0.592E-02
DAV:   8    -0.329234702237E+03    0.45757E-04   -0.43477E-04 13312   0.773E-02
  18 F= -.32923470E+03 E0= -.32923046E+03  d E =-.619008E-02
       N       E                     dE             d eps       ncg     rms          rms(c)
DAV:   1    -0.329236554614E+03   -0.18066E-02   -0.37198E-01 15128   0.215E+00    0.355E-01
DAV:   2    -0.329237551338E+03   -0.99672E-03   -0.29035E-02 20672   0.654E-01    0.195E-01
DAV:   3    -0.329237685282E+03   -0.13394E-03   -0.10201E-02 21400   0.342E-01    0.190E-01
DAV:   4    -0.329237162430E+03    0.52285E-03   -0.52961E-03 19896   0.226E-01    0.980E-02
DAV:   5    -0.329237112054E+03    0.50376E-04   -0.20892E-03 19664   0.145E-01    0.812E-02
DAV:   6    -0.329237002899E+03    0.10916E-03   -0.79832E-04 16624   0.957E-02    0.321E-02
DAV:   7    -0.329236998496E+03    0.44025E-05   -0.13370E-04  9320   0.551E-02
  19 F= -.32923700E+03 E0= -.32923277E+03  d E =-.229626E-02
       N       E                     dE             d eps       ncg     rms          rms(c)
DAV:   1    -0.329237246713E+03   -0.24381E-03   -0.32294E-01 15136   0.200E+00    0.330E-01
DAV:   2    -0.329238101846E+03   -0.85513E-03   -0.24625E-02 20456   0.599E-01    0.179E-01
DAV:   3    -0.329238225087E+03   -0.12324E-03   -0.86228E-03 21248   0.317E-01    0.173E-01
DAV:   4    -0.329237778253E+03    0.44683E-03   -0.44450E-03 19968   0.208E-01    0.878E-02
DAV:   5    -0.329237746681E+03    0.31572E-04   -0.17162E-03 19432   0.132E-01    0.732E-02
DAV:   6    -0.329237655177E+03    0.91504E-04   -0.55695E-04 14008   0.864E-02
  20 F= -.32923766E+03 E0= -.32923342E+03  d E =-.295294E-02
       N       E                     dE             d eps       ncg     rms          rms(c)
DAV:   1    -0.329239624122E+03   -0.18774E-02   -0.26928E-01 15128   0.188E+00    0.339E-01
DAV:   2    -0.329240901759E+03   -0.12776E-02   -0.29162E-02 22576   0.661E-01    0.258E-01
DAV:   3    -0.329240467381E+03    0.43438E-03   -0.14817E-02 22104   0.388E-01    0.204E-01
DAV:   4    -0.329239950915E+03    0.51647E-03   -0.44179E-03 20408   0.222E-01    0.110E-01
DAV:   5    -0.329239758171E+03    0.19274E-03   -0.18076E-03 18840   0.152E-01    0.612E-02
DAV:   6    -0.329239698100E+03    0.60071E-04   -0.71177E-04 16368   0.954E-02
  21 F= -.32923970E+03 E0= -.32923551E+03  d E =-.204292E-02
       N       E                     dE             d eps       ncg     rms          rms(c)
DAV:   1    -0.329240031918E+03   -0.27375E-03   -0.19847E-01 15120   0.162E+00    0.282E-01
DAV:   2    -0.329240886390E+03   -0.85447E-03   -0.19305E-02 21712   0.545E-01    0.198E-01
DAV:   3    -0.329240687314E+03    0.19908E-03   -0.93693E-03 20704   0.318E-01    0.158E-01
DAV:   4    -0.329240363477E+03    0.32384E-03   -0.31473E-03 20312   0.187E-01    0.878E-02
DAV:   5    -0.329240222722E+03    0.14076E-03   -0.12571E-03 17776   0.123E-01    0.482E-02
DAV:   6    -0.329240189072E+03    0.33650E-04   -0.38995E-04 12952   0.753E-02
  22 F= -.32924019E+03 E0= -.32923604E+03  d E =-.253390E-02
       N       E                     dE             d eps       ncg     rms          rms(c)
DAV:   1    -0.329240498490E+03   -0.27577E-03   -0.36091E-02 16024   0.649E-01    0.656E-02
DAV:   2    -0.329240692035E+03   -0.19355E-03   -0.25956E-03 24208   0.211E-01    0.796E-02
DAV:   3    -0.329240619148E+03    0.72887E-04   -0.70550E-04 15088   0.864E-02
  23 F= -.32924062E+03 E0= -.32923648E+03  d E =-.430076E-03
       N       E                     dE             d eps       ncg     rms          rms(c)
DAV:   1    -0.329240531251E+03    0.16078E-03   -0.32177E-01 15912   0.193E+00    0.191E-01
DAV:   2    -0.329241580590E+03   -0.10493E-02   -0.18999E-02 23992   0.571E-01    0.143E-01
DAV:   3    -0.329241588612E+03   -0.80225E-05   -0.34444E-03 21832   0.181E-01    0.128E-01
DAV:   4    -0.329241396201E+03    0.19241E-03   -0.17993E-03 19648   0.137E-01    0.771E-02
DAV:   5    -0.329241384032E+03    0.12169E-04   -0.10571E-03 17584   0.107E-01    0.652E-02
DAV:   6    -0.329241310919E+03    0.73113E-04   -0.51599E-04 14696   0.838E-02
  24 F= -.32924131E+03 E0= -.32923719E+03  d E =-.112185E-02
       N       E                     dE             d eps       ncg     rms          rms(c)
DAV:   1    -0.329241571062E+03   -0.18703E-03   -0.46978E-02 15152   0.765E-01    0.118E-01
DAV:   2    -0.329241745062E+03   -0.17400E-03   -0.40030E-03 21848   0.241E-01    0.768E-02
DAV:   3    -0.329241744008E+03    0.10540E-05   -0.14766E-03 18600   0.133E-01    0.701E-02
DAV:   4    -0.329241661216E+03    0.82792E-04   -0.41215E-04 13144   0.850E-02
  25 F= -.32924166E+03 E0= -.32923756E+03  d E =-.350297E-03
       N       E                     dE             d eps       ncg     rms          rms(c)
DAV:   1    -0.329241621884E+03    0.12212E-03   -0.13461E-01 15120   0.129E+00    0.197E-01
DAV:   2    -0.329242025360E+03   -0.40348E-03   -0.10453E-02 20512   0.392E-01    0.121E-01
DAV:   3    -0.329242164430E+03   -0.13907E-03   -0.44939E-03 21344   0.234E-01    0.136E-01
DAV:   4    -0.329241851981E+03    0.31245E-03   -0.17448E-03 19320   0.141E-01    0.595E-02
DAV:   5    -0.329241807169E+03    0.44812E-04   -0.62259E-04 15392   0.851E-02
  26 F= -.32924181E+03 E0= -.32923771E+03  d E =-.496249E-03
