<?xml version="1.0" encoding="ISO-8859-1"?>
<modeling>
 <generator>
  <i name="program" type="string">vasp </i>
  <i name="version" type="string">5.4.4.18Apr17-6-g9f103f2a35  </i>
  <i name="subversion" type="string">(build Aug 09 2018 16:20:53) complex            parallel </i>
  <i name="platform" type="string">LinuxIFC </i>
  <i name="date" type="string">2020 04 13 </i>
  <i name="time" type="string">21:07:18 </i>
 </generator>
 <incar>
  <i type="string" name="SYSTEM"> SQS with 1 vacancy for VFE and VRV</i>
  <i type="string" name="PREC">normal</i>
  <i type="int" name="IALGO">    38</i>
  <i type="int" name="ICHARG">     2</i>
  <i type="int" name="IBRION">     2</i>
  <i type="int" name="NSW">    50</i>
  <i type="int" name="ISIF">     3</i>
  <i type="int" name="ISYM">     0</i>
  <i name="ENCUT">    600.00000000</i>
  <i type="string" name="LREAL"> Auto</i>
  <i type="int" name="ISMEAR">     1</i>
  <i name="SIGMA">      0.20000000</i>
  <v type="int" name="KPOINT_BSE">    -1     0     0     0</v>
  <i type="string" name="GGA"> PS</i>
 </incar>
 <structure name="primitive_cell" >
  <crystal>
   <varray name="basis" >
    <v>      -3.19000000      -3.19000000      -3.19000000 </v>
    <v>       1.59500000       1.59500000      -7.97500000 </v>
    <v>       7.97500000      -7.97500000      -1.59500000 </v>
   </varray>
   <i name="volume">    486.92638500 </i>
   <varray name="rec_basis" >
    <v>      -0.13584117      -0.12539185      -0.05224660 </v>
    <v>       0.04179728       0.06269592      -0.10449321 </v>
    <v>       0.06269592      -0.06269592       0.00000000 </v>
   </varray>
  </crystal>
  <varray name="positions" >
   <v>      -0.03333333      -0.06666667       0.40000000 </v>
   <v>       0.30000000      -0.40000000       0.40000000 </v>
   <v>      -0.10000000      -0.20000000       0.20000000 </v>
   <v>       0.06666667       0.13333333       0.20000000 </v>
   <v>       0.46666667      -0.06666667       0.40000000 </v>
   <v>      -0.13333333      -0.26666667      -0.40000000 </v>
   <v>       0.03333333       0.06666667      -0.40000000 </v>
   <v>      -0.36666667       0.26666667       0.40000000 </v>
   <v>       0.40000000      -0.20000000       0.20000000 </v>
   <v>      -0.20000000      -0.40000000       0.40000000 </v>
   <v>      -0.43333333       0.13333333       0.20000000 </v>
   <v>       0.36666667      -0.26666667      -0.40000000 </v>
   <v>       0.13333333       0.26666667       0.40000000 </v>
   <v>      -0.46666667       0.06666667      -0.40000000 </v>
   <v>       0.20000000       0.40000000      -0.40000000 </v>
   <v>       0.00000000       0.00000000       0.00000000 </v>
   <v>      -0.06666667      -0.13333333      -0.20000000 </v>
   <v>      -0.30000000       0.40000000      -0.40000000 </v>
   <v>      -0.26666667       0.46666667       0.20000000 </v>
   <v>       0.33333333      -0.33333333       0.00000000 </v>
   <v>       0.43333333      -0.13333333      -0.20000000 </v>
   <v>      -0.50000000       0.00000000       0.00000000 </v>
   <v>       0.26666667      -0.46666667      -0.20000000 </v>
   <v>      -0.33333333       0.33333333       0.00000000 </v>
   <v>      -0.40000000       0.20000000      -0.20000000 </v>
   <v>      -0.16666667      -0.33333333       0.00000000 </v>
   <v>      -0.23333333      -0.46666667      -0.20000000 </v>
   <v>       0.16666667       0.33333333       0.00000000 </v>
   <v>       0.10000000       0.20000000      -0.20000000 </v>
  </varray>
 </structure>
 <varray name="primitive_index" >
  <v type="int" >        1 </v>
  <v type="int" >       18 </v>
  <v type="int" >        7 </v>
  <v type="int" >       24 </v>
  <v type="int" >       20 </v>
  <v type="int" >       19 </v>
  <v type="int" >        6 </v>
  <v type="int" >        2 </v>
  <v type="int" >       16 </v>
  <v type="int" >        8 </v>
  <v type="int" >       15 </v>
  <v type="int" >       11 </v>
  <v type="int" >       12 </v>
  <v type="int" >       28 </v>
  <v type="int" >       23 </v>
  <v type="int" >        4 </v>
  <v type="int" >       14 </v>
  <v type="int" >       26 </v>
  <v type="int" >        9 </v>
  <v type="int" >       29 </v>
  <v type="int" >       17 </v>
  <v type="int" >        3 </v>
  <v type="int" >       22 </v>
  <v type="int" >       10 </v>
  <v type="int" >       27 </v>
  <v type="int" >       13 </v>
  <v type="int" >       25 </v>
  <v type="int" >       21 </v>
  <v type="int" >        5 </v>
 </varray>
 <kpoints>
  <generation param="Gamma">
   <v type="int" name="divisions">       5        5        5 </v>
   <v name="usershift">      0.00000000       0.00000000       0.00000000 </v>
   <v name="genvec1">      0.20000000      -0.00000000      -0.00000000 </v>
   <v name="genvec2">      0.00000000       0.20000000       0.00000000 </v>
   <v name="genvec3">      0.00000000       0.00000000       0.20000000 </v>
   <v name="shift">      0.00000000       0.00000000       0.00000000 </v>
  </generation>
  <varray name="kpointlist" >
   <v>       0.00000000       0.00000000       0.00000000 </v>
   <v>       0.20000000      -0.00000000       0.00000000 </v>
   <v>       0.40000000      -0.00000000       0.00000000 </v>
   <v>       0.00000000       0.20000000       0.00000000 </v>
   <v>       0.20000000       0.20000000      -0.00000000 </v>
   <v>       0.40000000       0.20000000      -0.00000000 </v>
   <v>      -0.40000000       0.20000000      -0.00000000 </v>
   <v>      -0.20000000       0.20000000       0.00000000 </v>
   <v>       0.00000000       0.40000000       0.00000000 </v>
   <v>       0.20000000       0.40000000       0.00000000 </v>
   <v>       0.40000000       0.40000000      -0.00000000 </v>
   <v>      -0.40000000       0.40000000       0.00000000 </v>
   <v>      -0.20000000       0.40000000       0.00000000 </v>
   <v>       0.00000000       0.00000000       0.20000000 </v>
   <v>       0.20000000      -0.00000000       0.20000000 </v>
   <v>       0.40000000       0.00000000       0.20000000 </v>
   <v>      -0.40000000       0.00000000       0.20000000 </v>
   <v>      -0.20000000       0.00000000       0.20000000 </v>
   <v>       0.00000000       0.20000000       0.20000000 </v>
   <v>       0.20000000       0.20000000       0.20000000 </v>
   <v>       0.40000000       0.20000000       0.20000000 </v>
   <v>      -0.40000000       0.20000000       0.20000000 </v>
   <v>      -0.20000000       0.20000000       0.20000000 </v>
   <v>       0.00000000       0.40000000       0.20000000 </v>
   <v>       0.20000000       0.40000000       0.20000000 </v>
   <v>       0.40000000       0.40000000       0.20000000 </v>
   <v>      -0.40000000       0.40000000       0.20000000 </v>
   <v>      -0.20000000       0.40000000       0.20000000 </v>
   <v>       0.00000000      -0.40000000       0.20000000 </v>
   <v>       0.20000000      -0.40000000       0.20000000 </v>
   <v>       0.40000000      -0.40000000       0.20000000 </v>
   <v>      -0.40000000      -0.40000000       0.20000000 </v>
   <v>      -0.20000000      -0.40000000       0.20000000 </v>
   <v>       0.00000000      -0.20000000       0.20000000 </v>
   <v>       0.20000000      -0.20000000       0.20000000 </v>
   <v>       0.40000000      -0.20000000       0.20000000 </v>
   <v>      -0.40000000      -0.20000000       0.20000000 </v>
   <v>      -0.20000000      -0.20000000       0.20000000 </v>
   <v>       0.00000000       0.00000000       0.40000000 </v>
   <v>       0.20000000      -0.00000000       0.40000000 </v>
   <v>       0.40000000      -0.00000000       0.40000000 </v>
   <v>      -0.40000000       0.00000000       0.40000000 </v>
   <v>      -0.20000000       0.00000000       0.40000000 </v>
   <v>      -0.00000000       0.20000000       0.40000000 </v>
   <v>       0.20000000       0.20000000       0.40000000 </v>
   <v>       0.40000000       0.20000000       0.40000000 </v>
   <v>      -0.40000000       0.20000000       0.40000000 </v>
   <v>      -0.20000000       0.20000000       0.40000000 </v>
   <v>       0.00000000       0.40000000       0.40000000 </v>
   <v>       0.20000000       0.40000000       0.40000000 </v>
   <v>       0.40000000       0.40000000       0.40000000 </v>
   <v>      -0.40000000       0.40000000       0.40000000 </v>
   <v>      -0.20000000       0.40000000       0.40000000 </v>
   <v>       0.00000000      -0.40000000       0.40000000 </v>
   <v>       0.20000000      -0.40000000       0.40000000 </v>
   <v>       0.40000000      -0.40000000       0.40000000 </v>
   <v>      -0.40000000      -0.40000000       0.40000000 </v>
   <v>      -0.20000000      -0.40000000       0.40000000 </v>
   <v>       0.00000000      -0.20000000       0.40000000 </v>
   <v>       0.20000000      -0.20000000       0.40000000 </v>
   <v>       0.40000000      -0.20000000       0.40000000 </v>
   <v>      -0.40000000      -0.20000000       0.40000000 </v>
   <v>      -0.20000000      -0.20000000       0.40000000 </v>
  </varray>
  <varray name="weights" >
   <v>       0.00800000 </v>
   <v>       0.01600000 </v>
   <v>       0.01600000 </v>
   <v>       0.01600000 </v>
   <v>       0.01600000 </v>
   <v>       0.01600000 </v>
   <v>       0.01600000 </v>
   <v>       0.01600000 </v>
   <v>       0.01600000 </v>
   <v>       0.01600000 </v>
   <v>       0.01600000 </v>
   <v>       0.01600000 </v>
   <v>       0.01600000 </v>
   <v>       0.01600000 </v>
   <v>       0.01600000 </v>
   <v>       0.01600000 </v>
   <v>       0.01600000 </v>
   <v>       0.01600000 </v>
   <v>       0.01600000 </v>
   <v>       0.01600000 </v>
   <v>       0.01600000 </v>
   <v>       0.01600000 </v>
   <v>       0.01600000 </v>
   <v>       0.01600000 </v>
   <v>       0.01600000 </v>
   <v>       0.01600000 </v>
   <v>       0.01600000 </v>
   <v>       0.01600000 </v>
   <v>       0.01600000 </v>
   <v>       0.01600000 </v>
   <v>       0.01600000 </v>
   <v>       0.01600000 </v>
   <v>       0.01600000 </v>
   <v>       0.01600000 </v>
   <v>       0.01600000 </v>
   <v>       0.01600000 </v>
   <v>       0.01600000 </v>
   <v>       0.01600000 </v>
   <v>       0.01600000 </v>
   <v>       0.01600000 </v>
   <v>       0.01600000 </v>
   <v>       0.01600000 </v>
   <v>       0.01600000 </v>
   <v>       0.01600000 </v>
   <v>       0.01600000 </v>
   <v>       0.01600000 </v>
   <v>       0.01600000 </v>
   <v>       0.01600000 </v>
   <v>       0.01600000 </v>
   <v>       0.01600000 </v>
   <v>       0.01600000 </v>
   <v>       0.01600000 </v>
   <v>       0.01600000 </v>
   <v>       0.01600000 </v>
   <v>       0.01600000 </v>
   <v>       0.01600000 </v>
   <v>       0.01600000 </v>
   <v>       0.01600000 </v>
   <v>       0.01600000 </v>
   <v>       0.01600000 </v>
   <v>       0.01600000 </v>
   <v>       0.01600000 </v>
   <v>       0.01600000 </v>
  </varray>
 </kpoints>
 <parameters>
  <separator name="general" >
   <i type="string" name="SYSTEM">SQS with 1 vacancy for VFE and VRV</i>
   <i type="logical" name="LCOMPAT"> F  </i>
  </separator>
  <separator name="electronic" >
   <i type="string" name="PREC">normal</i>
   <i name="ENMAX">    600.00000000</i>
   <i name="ENAUG">    455.65900000</i>
   <i name="EDIFF">      0.00010000</i>
   <i type="int" name="IALGO">    38</i>
   <i type="int" name="IWAVPR">    11</i>
   <i type="int" name="NBANDS">   120</i>
   <i name="NELECT">    198.00000000</i>
   <i type="int" name="TURBO">     0</i>
   <i type="int" name="IRESTART">     0</i>
   <i type="int" name="NREBOOT">     0</i>
   <i type="int" name="NMIN">     0</i>
   <i name="EREF">      0.00000000</i>
   <separator name="electronic smearing" >
    <i type="int" name="ISMEAR">     1</i>
    <i name="SIGMA">      0.20000000</i>
    <i name="KSPACING">      0.50000000</i>
    <i type="logical" name="KGAMMA"> T  </i>
   </separator>
   <separator name="electronic projectors" >
    <i type="logical" name="LREAL"> T  </i>
    <v name="ROPT">     -0.00050000     -0.00050000     -0.00050000     -0.00050000     -0.00050000</v>
    <i type="int" name="LMAXPAW">  -100</i>
    <i type="int" name="LMAXMIX">     2</i>
    <i type="logical" name="NLSPLINE"> F  </i>
   </separator>
   <separator name="electronic startup" >
    <i type="int" name="ISTART">     0</i>
    <i type="int" name="ICHARG">     2</i>
    <i type="int" name="INIWAV">     1</i>
   </separator>
   <separator name="electronic spin" >
    <i type="int" name="ISPIN">     1</i>
    <i type="logical" name="LNONCOLLINEAR"> F  </i>
    <v name="MAGMOM">      1.00000000      1.00000000      1.00000000      1.00000000      1.00000000      1.00000000      1.00000000      1.00000000      1.00000000      1.00000000      1.00000000      1.00000000      1.00000000      1.00000000      1.00000000      1.00000000      1.00000000      1.00000000      1.00000000      1.00000000
      1.00000000      1.00000000      1.00000000      1.00000000      1.00000000      1.00000000      1.00000000      1.00000000      1.00000000</v>
    <i name="NUPDOWN">     -1.00000000</i>
    <i type="logical" name="LSORBIT"> F  </i>
    <v name="SAXIS">      0.00000000      0.00000000      1.00000000</v>
    <i type="logical" name="LSPIRAL"> F  </i>
    <v name="QSPIRAL">      0.00000000      0.00000000      0.00000000</v>
    <i type="logical" name="LZEROZ"> F  </i>
   </separator>
   <separator name="electronic exchange-correlation" >
    <i type="logical" name="LASPH"> F  </i>
    <i type="logical" name="LMETAGGA"> F  </i>
   </separator>
   <separator name="electronic convergence" >
    <i type="int" name="NELM">    60</i>
    <i type="int" name="NELMDL">    -5</i>
    <i type="int" name="NELMIN">     2</i>
    <i name="ENINI">    600.00000000</i>
    <separator name="electronic convergence detail" >
     <i type="logical" name="LDIAG"> T  </i>
     <i type="logical" name="LSUBROT"> F  </i>
     <i name="WEIMIN">      0.00100000</i>
     <i name="EBREAK">      0.00000021</i>
     <i name="DEPER">      0.30000000</i>
     <i type="int" name="NRMM">     4</i>
     <i name="TIME">      0.40000000</i>
    </separator>
   </separator>
   <separator name="electronic mixer" >
    <i name="AMIX">      0.40000000</i>
    <i name="BMIX">      1.00000000</i>
    <i name="AMIN">      0.10000000</i>
    <i name="AMIX_MAG">      1.60000000</i>
    <i name="BMIX_MAG">      1.00000000</i>
    <separator name="electronic mixer details" >
     <i type="int" name="IMIX">     4</i>
     <i type="logical" name="MIXFIRST"> F  </i>
     <i type="int" name="MAXMIX">   -45</i>
     <i name="WC">    100.00000000</i>
     <i type="int" name="INIMIX">     1</i>
     <i type="int" name="MIXPRE">     1</i>
     <i type="int" name="MREMOVE">     5</i>
    </separator>
   </separator>
   <separator name="electronic dipolcorrection" >
    <i type="logical" name="LDIPOL"> F  </i>
    <i type="logical" name="LMONO"> F  </i>
    <i type="int" name="IDIPOL">     0</i>
    <i name="EPSILON">      1.00000000</i>
    <v name="DIPOL">   -100.00000000   -100.00000000   -100.00000000</v>
    <i name="EFIELD">      0.00000000</i>
   </separator>
  </separator>
  <separator name="grids" >
   <i type="int" name="NGX">    36</i>
   <i type="int" name="NGY">    50</i>
   <i type="int" name="NGZ">    70</i>
   <i type="int" name="NGXF">    72</i>
   <i type="int" name="NGYF">   100</i>
   <i type="int" name="NGZF">   140</i>
   <i type="logical" name="ADDGRID"> F  </i>
  </separator>
  <separator name="ionic" >
   <i type="int" name="NSW">    50</i>
   <i type="int" name="IBRION">     2</i>
   <i type="int" name="MDALGO">     0</i>
   <i type="int" name="ISIF">     3</i>
   <i name="PSTRESS">      0.00000000</i>
   <i name="EDIFFG">      0.00100000</i>
   <i type="int" name="NFREE">     1</i>
   <i name="POTIM">      0.50000000</i>
   <i name="SMASS">     -3.00000000</i>
   <i name="SCALEE">      1.00000000</i>
  </separator>
  <separator name="ionic md" >
   <i name="TEBEG">      0.00010000</i>
   <i name="TEEND">      0.00010000</i>
   <i type="int" name="NBLOCK">     1</i>
   <i type="int" name="KBLOCK">    50</i>
   <i type="int" name="NPACO">   256</i>
   <i name="APACO">     16.00000000</i>
  </separator>
  <separator name="symmetry" >
   <i type="int" name="ISYM">     0</i>
   <i name="SYMPREC">      0.00001000</i>
  </separator>
  <separator name="dos" >
   <i type="int" name="LORBIT">     0</i>
   <v name="RWIGS">     -1.00000000     -1.00000000     -1.00000000     -1.00000000     -1.00000000</v>
   <i type="int" name="NEDOS">   301</i>
   <i name="EMIN">     10.00000000</i>
   <i name="EMAX">    -10.00000000</i>
   <i name="EFERMI">      0.00000000</i>
  </separator>
  <separator name="writing" >
   <i type="int" name="NWRITE">     2</i>
   <i type="logical" name="LWAVE"> T  </i>
   <i type="logical" name="LDOWNSAMPLE"> F  </i>
   <i type="logical" name="LCHARG"> T  </i>
   <i type="logical" name="LPARD"> F  </i>
   <i type="logical" name="LVTOT"> F  </i>
   <i type="logical" name="LVHAR"> F  </i>
   <i type="logical" name="LELF"> F  </i>
   <i type="logical" name="LOPTICS"> F  </i>
   <v name="STM">      0.00000000      0.00000000      0.00000000      0.00000000      0.00000000      0.00000000      0.00000000</v>
  </separator>
  <separator name="performance" >
   <i type="int" name="NPAR">     8</i>
   <i type="int" name="NSIM">     4</i>
   <i type="int" name="NBLK">    -1</i>
   <i type="logical" name="LPLANE"> T  </i>
   <i type="logical" name="LSCALAPACK"> T  </i>
   <i type="logical" name="LSCAAWARE"> F  </i>
   <i type="logical" name="LSCALU"> F  </i>
   <i type="logical" name="LASYNC"> F  </i>
   <i type="logical" name="LORBITALREAL"> F  </i>
  </separator>
  <separator name="miscellaneous" >
   <i type="int" name="IDIOT">     3</i>
   <i type="int" name="ISPECIAL">     0</i>
   <i type="logical" name="LMUSIC"> F  </i>
   <v name="POMASS">     92.91000000     95.94000000    180.94800000     47.88000000    183.85000000</v>
   <v name="DARWINR">      0.00000000      0.00000000      0.00000000      0.00000000      0.00000000</v>
   <v name="DARWINV">      1.00000000      1.00000000      1.00000000      1.00000000      1.00000000</v>
   <i type="logical" name="LCORR"> T  </i>
  </separator>
  <i type="logical" name="GGA_COMPAT"> T  </i>
  <i type="logical" name="LBERRY"> F  </i>
  <i type="int" name="ICORELEVEL">     0</i>
  <i type="logical" name="LDAU"> F  </i>
  <i type="int" name="I_CONSTRAINED_M">     0</i>
  <separator name="electronic exchange-correlation" >
   <i type="string" name="GGA">PS</i>
   <i type="int" name="VOSKOWN">     0</i>
   <i type="logical" name="LHFCALC"> F  </i>
   <i type="string" name="PRECFOCK"></i>
   <i type="logical" name="LSYMGRAD"> F  </i>
   <i type="logical" name="LHFONE"> F  </i>
   <i type="logical" name="LRHFCALC"> F  </i>
   <i type="logical" name="LTHOMAS"> F  </i>
   <i type="logical" name="LMODELHF"> F  </i>
   <i name="ENCUT4O">     -1.00000000</i>
   <i type="int" name="EXXOEP">     0</i>
   <i type="int" name="FOURORBIT">     0</i>
   <i name="AEXX">      0.00000000</i>
   <i name="HFALPHA">      0.00000000</i>
   <i name="MCALPHA">      0.00000000</i>
   <i name="ALDAX">      1.00000000</i>
   <i name="AGGAX">      1.00000000</i>
   <i name="ALDAC">      1.00000000</i>
   <i name="AGGAC">      1.00000000</i>
   <i type="int" name="NKREDX">     1</i>
   <i type="int" name="NKREDY">     1</i>
   <i type="int" name="NKREDZ">     1</i>
   <i type="logical" name="SHIFTRED"> F  </i>
   <i type="logical" name="ODDONLY"> F  </i>
   <i type="logical" name="EVENONLY"> F  </i>
   <i type="int" name="LMAXFOCK">     0</i>
   <i type="int" name="NMAXFOCKAE">     0</i>
   <i type="logical" name="LFOCKAEDFT"> F  </i>
   <i name="HFSCREEN">      0.00000000</i>
   <i name="HFSCREENC">      0.00000000</i>
   <i type="int" name="NBANDSGWLOW">     0</i>
  </separator>
  <separator name="vdW DFT" >
   <i type="logical" name="LUSE_VDW"> F  </i>
   <i name="Zab_VDW">     -0.84910000</i>
   <i name="PARAM1">      0.12340000</i>
   <i name="PARAM2">      1.00000000</i>
   <i name="PARAM3">      0.00000000</i>
  </separator>
  <separator name="model GW" >
   <i type="int" name="MODEL_GW">     0</i>
   <i name="MODEL_EPS0">     10.07433900</i>
   <i name="MODEL_ALPHA">      1.00000000</i>
  </separator>
  <separator name="linear response parameters" >
   <i type="logical" name="LEPSILON"> F  </i>
   <i type="logical" name="LRPA"> F  </i>
   <i type="logical" name="LNABLA"> F  </i>
   <i type="logical" name="LVEL"> F  </i>
   <i type="int" name="KINTER">     0</i>
   <i name="CSHIFT">      0.10000000</i>
   <i name="OMEGAMAX">     -1.00000000</i>
   <i name="DEG_THRESHOLD">      0.00200000</i>
   <i name="RTIME">     -0.10000000</i>
   <i name="WPLASMAI">      0.00000000</i>
   <v name="DFIELD">      0.00000000      0.00000000      0.00000000</v>
   <v name="WPLASMA">      0.00000000      0.00000000      0.00000000      0.00000000      0.00000000      0.00000000      0.00000000      0.00000000      0.00000000</v>
  </separator>
  <separator name="orbital magnetization" >
   <i type="logical" name="NUCIND"> F  </i>
   <v name="MAGPOS">      0.00000000      0.00000000      0.00000000</v>
   <i type="logical" name="LNICSALL"> T  </i>
   <i type="logical" name="ORBITALMAG"> F  </i>
   <i type="logical" name="LMAGBLOCH"> F  </i>
   <i type="logical" name="LCHIMAG"> F  </i>
   <i type="logical" name="LGAUGE"> T  </i>
   <i type="int" name="MAGATOM">     0</i>
   <v name="MAGDIPOL">      0.00000000      0.00000000      0.00000000</v>
   <v name="AVECCONST">      0.00000000      0.00000000      0.00000000</v>
  </separator>
  <separator name="response functions" >
   <i type="logical" name="LADDER"> F  </i>
   <i type="logical" name="LRPAFORCE"> F  </i>
   <i type="logical" name="LFXC"> F  </i>
   <i type="logical" name="LHARTREE"> T  </i>
   <i type="int" name="IBSE">     0</i>
   <v type="int" name="KPOINT">    -1     0     0     0</v>
   <i type="logical" name="LTCTE"> F  </i>
   <i type="logical" name="LTETE"> F  </i>
   <i type="logical" name="LTRIPLET"> F  </i>
   <i type="logical" name="LFXCEPS"> F  </i>
   <i type="logical" name="LFXHEG"> F  </i>
   <i type="int" name="NATURALO">     2</i>
   <i type="logical" name="L2ORDER"> F  </i>
   <i type="logical" name="LMP2LT"> F  </i>
   <i type="logical" name="LUSEW"> F  </i>
   <i name="ENCUTGW">     -2.00000000</i>
   <i name="ENCUTGWSOFT">     -2.00000000</i>
   <i name="ENCUTLF">     -1.00000000</i>
   <i type="int" name="LMAXMP2">    -1</i>
   <i name="SCISSOR">      0.00000000</i>
   <i type="int" name="NOMEGA">     0</i>
   <i type="int" name="NOMEGAR">     0</i>
   <i type="int" name="NBANDSGW">    -1</i>
   <i type="int" name="NBANDSO">    -1</i>
   <i type="int" name="NBANDSV">    -1</i>
   <i type="int" name="NELM">     1</i>
   <i type="int" name="NELMHF">     1</i>
   <i type="int" name="DIM">     3</i>
   <i type="int" name="ANTIRES">     0</i>
   <i name="OMEGAMAX">    -30.00000000</i>
   <i name="OMEGAMIN">    -30.00000000</i>
   <i name="OMEGATL">   -200.00000000</i>
   <i type="int" name="OMEGAGRID">   140</i>
   <i name="CSHIFT">     -0.10000000</i>
   <i type="logical" name="SELFENERGY"> F  </i>
   <i type="logical" name="LSPECTRAL"> F  </i>
   <i type="logical" name="LSPECTRALGW"> F  </i>
   <i type="logical" name="LSINGLES"> F  </i>
   <i type="logical" name="LFERMIGW"> F  </i>
   <i type="logical" name="ODDONLYGW"> F  </i>
   <i type="logical" name="EVENONLYGW"> F  </i>
   <i type="int" name="NKREDLFX">     1</i>
   <i type="int" name="NKREDLFY">     1</i>
   <i type="int" name="NKREDLFZ">     1</i>
   <i type="int" name="MAXMEM">  2800</i>
   <i type="int" name="TELESCOPE">     0</i>
   <i type="int" name="TAUPAR">     1</i>
   <i type="int" name="OMEGAPAR">    -1</i>
   <i name="LAMBDA">      1.00000000</i>
  </separator>
  <separator name="External order field" >
   <i name="OFIELD_KAPPA">      0.00000000</i>
   <v name="OFIELD_K">      0.00000000      0.00000000      0.00000000</v>
   <i name="OFIELD_Q6_NEAR">      0.00000000</i>
   <i name="OFIELD_Q6_FAR">      0.00000000</i>
   <i name="OFIELD_A">      0.00000000</i>
  </separator>
  <separator name="solvation model" >
   <i type="logical" name="LSOL"> F  </i>
  </separator>
 </parameters>
 <atominfo>
  <atoms>      29 </atoms>
  <types>       5 </types>
  <array name="atoms" >
   <dimension dim="1">ion</dimension>
   <field type="string">element</field>
   <field type="int">atomtype</field>
   <set>
    <rc><c>Nb</c><c>   1</c></rc>
    <rc><c>Nb</c><c>   1</c></rc>
    <rc><c>Nb</c><c>   1</c></rc>
    <rc><c>Nb</c><c>   1</c></rc>
    <rc><c>Nb</c><c>   1</c></rc>
    <rc><c>Nb</c><c>   1</c></rc>
    <rc><c>Mo</c><c>   2</c></rc>
    <rc><c>Mo</c><c>   2</c></rc>
    <rc><c>Mo</c><c>   2</c></rc>
    <rc><c>Mo</c><c>   2</c></rc>
    <rc><c>Mo</c><c>   2</c></rc>
    <rc><c>Mo</c><c>   2</c></rc>
    <rc><c>Ta</c><c>   3</c></rc>
    <rc><c>Ta</c><c>   3</c></rc>
    <rc><c>Ta</c><c>   3</c></rc>
    <rc><c>Ta</c><c>   3</c></rc>
    <rc><c>Ta</c><c>   3</c></rc>
    <rc><c>Ta</c><c>   3</c></rc>
    <rc><c>Ti</c><c>   4</c></rc>
    <rc><c>Ti</c><c>   4</c></rc>
    <rc><c>Ti</c><c>   4</c></rc>
    <rc><c>Ti</c><c>   4</c></rc>
    <rc><c>Ti</c><c>   4</c></rc>
    <rc><c>Ti</c><c>   4</c></rc>
    <rc><c>W </c><c>   5</c></rc>
    <rc><c>W </c><c>   5</c></rc>
    <rc><c>W </c><c>   5</c></rc>
    <rc><c>W </c><c>   5</c></rc>
    <rc><c>W </c><c>   5</c></rc>
   </set>
  </array>
  <array name="atomtypes" >
   <dimension dim="1">type</dimension>
   <field type="int">atomspertype</field>
   <field type="string">element</field>
   <field>mass</field>
   <field>valence</field>
   <field type="string">pseudopotential</field>
   <set>
    <rc><c>   6</c><c>Nb</c><c>     92.91000000</c><c>     13.00000000</c><c>  PAW_PBE Nb_sv 25May2007               </c></rc>
    <rc><c>   6</c><c>Mo</c><c>     95.94000000</c><c>      6.00000000</c><c>  PAW_PBE Mo 08Apr2002                  </c></rc>
    <rc><c>   6</c><c>Ta</c><c>    180.94800000</c><c>      5.00000000</c><c>  PAW_PBE Ta 17Jan2003                  </c></rc>
    <rc><c>   6</c><c>Ti</c><c>     47.88000000</c><c>      4.00000000</c><c>  PAW_PBE Ti 08Apr2002                  </c></rc>
    <rc><c>   5</c><c>W </c><c>    183.85000000</c><c>      6.00000000</c><c>  PAW_PBE W 08Apr2002                   </c></rc>
   </set>
  </array>
 </atominfo>
 <structure name="initialpos" >
  <crystal>
   <varray name="basis" >
    <v>      -3.19000000      -3.19000000      -3.19000000 </v>
    <v>       1.59500000       1.59500000      -7.97500000 </v>
    <v>       7.97500000      -7.97500000      -1.59500000 </v>
   </varray>
   <i name="volume">    486.92638500 </i>
   <varray name="rec_basis" >
    <v>      -0.13584117      -0.12539185      -0.05224660 </v>
    <v>       0.04179728       0.06269592      -0.10449321 </v>
    <v>       0.06269592      -0.06269592       0.00000000 </v>
   </varray>
  </crystal>
  <varray name="positions" >
   <v>       0.96666667       0.93333333       0.40000000 </v>
   <v>       0.63333333       0.26666667       0.40000000 </v>
   <v>       0.50000000       0.00000000       0.00000000 </v>
   <v>       0.00000000       0.00000000       0.00000000 </v>
   <v>       0.10000000       0.20000000       0.80000000 </v>
   <v>       0.03333333       0.06666667       0.60000000 </v>
   <v>       0.90000000       0.80000000       0.20000000 </v>
   <v>       0.80000000       0.60000000       0.40000000 </v>
   <v>       0.73333333       0.46666667       0.20000000 </v>
   <v>       0.66666667       0.33333333       0.00000000 </v>
   <v>       0.36666667       0.73333333       0.60000000 </v>
   <v>       0.13333333       0.26666667       0.40000000 </v>
   <v>       0.83333333       0.66666667       0.00000000 </v>
   <v>       0.93333333       0.86666667       0.80000000 </v>
   <v>       0.56666667       0.13333333       0.20000000 </v>
   <v>       0.40000000       0.80000000       0.20000000 </v>
   <v>       0.43333333       0.86666667       0.80000000 </v>
   <v>       0.30000000       0.60000000       0.40000000 </v>
   <v>       0.86666667       0.73333333       0.60000000 </v>
   <v>       0.46666667       0.93333333       0.40000000 </v>
   <v>       0.16666667       0.33333333       0.00000000 </v>
   <v>       0.26666667       0.53333333       0.80000000 </v>
   <v>       0.20000000       0.40000000       0.60000000 </v>
   <v>       0.06666667       0.13333333       0.20000000 </v>
   <v>       0.76666667       0.53333333       0.80000000 </v>
   <v>       0.70000000       0.40000000       0.60000000 </v>
   <v>       0.60000000       0.20000000       0.80000000 </v>
   <v>       0.53333333       0.06666667       0.60000000 </v>
   <v>       0.33333333       0.66666667       0.00000000 </v>
  </varray>
 </structure>
 <calculation>
  <scstep>
   <time name="dav">   18.17   18.20</time>
   <time name="total">   18.20   18.24</time>
   <energy>
    <i name="alphaZ">   1291.39724513 </i>
    <i name="ewald"> -11375.64616769 </i>
    <i name="hartreedc">  -3294.38398733 </i>
    <i name="XCdc">   -857.07820832 </i>
    <i name="pawpsdc">  12063.15090526 </i>
    <i name="pawaedc"> -10557.55889498 </i>
    <i name="eentropy">      0.00033184 </i>
    <i name="bandstr">   1878.36014388 </i>
    <i name="atom">  13006.21773402 </i>
    <i name="e_fr_energy">   2154.45910184 </i>
    <i name="e_wo_entrp">   2154.45877000 </i>
    <i name="e_0_energy">   2154.45899122 </i>
   </energy>
  </scstep>
  <scstep>
   <time name="dav">   18.21   18.24</time>
   <time name="total">   18.21   18.24</time>
   <energy>
    <i name="e_fr_energy">     73.65509812 </i>
    <i name="e_wo_entrp">     73.65178946 </i>
    <i name="e_0_energy">     73.65399523 </i>
   </energy>
  </scstep>
  <scstep>
   <time name="dav">   28.61   28.66</time>
   <time name="total">   28.61   28.66</time>
   <energy>
    <i name="e_fr_energy">   -299.37709421 </i>
    <i name="e_wo_entrp">   -299.37241083 </i>
    <i name="e_0_energy">   -299.37553308 </i>
   </energy>
  </scstep>
  <scstep>
   <time name="dav">   25.77   25.81</time>
   <time name="total">   25.77   25.81</time>
   <energy>
    <i name="e_fr_energy">   -345.72775337 </i>
    <i name="e_wo_entrp">   -345.72822313 </i>
    <i name="e_0_energy">   -345.72790996 </i>
   </energy>
  </scstep>
  <scstep>
   <time name="dav">   30.68   30.74</time>
   <time name="total">   31.27   31.32</time>
   <energy>
    <i name="e_fr_energy">   -350.73659183 </i>
    <i name="e_wo_entrp">   -350.73721216 </i>
    <i name="e_0_energy">   -350.73679861 </i>
   </energy>
  </scstep>
  <scstep>
   <time name="dav">   23.94   23.98</time>
   <time name="total">   24.56   24.60</time>
   <energy>
    <i name="e_fr_energy">   -341.83612381 </i>
    <i name="e_wo_entrp">   -341.84057699 </i>
    <i name="e_0_energy">   -341.83760820 </i>
   </energy>
  </scstep>
  <scstep>
   <time name="dav">   24.27   24.30</time>
   <time name="total">   24.88   24.93</time>
   <energy>
    <i name="e_fr_energy">   -353.57411312 </i>
    <i name="e_wo_entrp">   -353.58201270 </i>
    <i name="e_0_energy">   -353.57674631 </i>
   </energy>
  </scstep>
  <scstep>
   <time name="dav">   25.06   25.10</time>
   <time name="total">   25.69   25.73</time>
   <energy>
    <i name="e_fr_energy">   -339.76218108 </i>
    <i name="e_wo_entrp">   -339.75575184 </i>
    <i name="e_0_energy">   -339.76003800 </i>
   </energy>
  </scstep>
  <scstep>
   <time name="dav">   25.46   25.50</time>
   <time name="total">   26.08   26.12</time>
   <energy>
    <i name="e_fr_energy">   -333.04219368 </i>
    <i name="e_wo_entrp">   -333.04703821 </i>
    <i name="e_0_energy">   -333.04380853 </i>
   </energy>
  </scstep>
  <scstep>
   <time name="dav">   24.50   24.54</time>
   <time name="total">   25.12   25.16</time>
   <energy>
    <i name="e_fr_energy">   -330.05809074 </i>
    <i name="e_wo_entrp">   -330.05678780 </i>
    <i name="e_0_energy">   -330.05765643 </i>
   </energy>
  </scstep>
  <scstep>
   <time name="dav">   24.86   24.89</time>
   <time name="total">   25.47   25.52</time>
   <energy>
    <i name="e_fr_energy">   -328.71697414 </i>
    <i name="e_wo_entrp">   -328.70816533 </i>
    <i name="e_0_energy">   -328.71403787 </i>
   </energy>
  </scstep>
  <scstep>
   <time name="dav">   25.08   25.11</time>
   <time name="total">   25.69   25.73</time>
   <energy>
    <i name="e_fr_energy">   -328.57801975 </i>
    <i name="e_wo_entrp">   -328.56511308 </i>
    <i name="e_0_energy">   -328.57371753 </i>
   </energy>
  </scstep>
  <scstep>
   <time name="dav">   24.20   24.23</time>
   <time name="total">   24.81   24.85</time>
   <energy>
    <i name="e_fr_energy">   -328.49167158 </i>
    <i name="e_wo_entrp">   -328.47731369 </i>
    <i name="e_0_energy">   -328.48688561 </i>
   </energy>
  </scstep>
  <scstep>
   <time name="dav">   25.54   25.58</time>
   <time name="total">   26.16   26.20</time>
   <energy>
    <i name="e_fr_energy">   -328.46187833 </i>
    <i name="e_wo_entrp">   -328.44560993 </i>
    <i name="e_0_energy">   -328.45645553 </i>
   </energy>
  </scstep>
  <scstep>
   <time name="dav">   24.60   24.64</time>
   <time name="total">   25.22   25.26</time>
   <energy>
    <i name="e_fr_energy">   -328.45465155 </i>
    <i name="e_wo_entrp">   -328.44023209 </i>
    <i name="e_0_energy">   -328.44984506 </i>
   </energy>
  </scstep>
  <scstep>
   <time name="dav">   25.84   25.88</time>
   <time name="total">   26.46   26.49</time>
   <energy>
    <i name="e_fr_energy">   -328.45255522 </i>
    <i name="e_wo_entrp">   -328.43652442 </i>
    <i name="e_0_energy">   -328.44721162 </i>
   </energy>
  </scstep>
  <scstep>
   <time name="dav">   23.96   23.99</time>
   <time name="total">   24.58   24.62</time>
   <energy>
    <i name="e_fr_energy">   -328.44680091 </i>
    <i name="e_wo_entrp">   -328.43124633 </i>
    <i name="e_0_energy">   -328.44161605 </i>
   </energy>
  </scstep>
  <scstep>
   <time name="dav">   24.00   24.03</time>
   <time name="total">   24.62   24.65</time>
   <energy>
    <i name="e_fr_energy">   -328.44599897 </i>
    <i name="e_wo_entrp">   -328.43074607 </i>
    <i name="e_0_energy">   -328.44091467 </i>
   </energy>
  </scstep>
  <scstep>
   <time name="dav">   23.41   23.44</time>
   <time name="total">   24.03   24.06</time>
   <energy>
    <i name="e_fr_energy">   -328.44549508 </i>
    <i name="e_wo_entrp">   -328.43035673 </i>
    <i name="e_0_energy">   -328.44044896 </i>
   </energy>
  </scstep>
  <scstep>
   <time name="dav">   20.87   20.90</time>
   <time name="total">   20.91   20.95</time>
   <energy>
    <i name="alphaZ">   1291.39724513 </i>
    <i name="ewald"> -11375.64616769 </i>
    <i name="hartreedc">  -3153.82892488 </i>
    <i name="XCdc">   -851.64658212 </i>
    <i name="pawpsdc">  20669.20581347 </i>
    <i name="pawaedc"> -19163.90132690 </i>
    <i name="eentropy">     -0.01516429 </i>
    <i name="bandstr">   -750.22812888 </i>
    <i name="atom">  13006.21773402 </i>
    <i name="e_fr_energy">   -328.44550213 </i>
    <i name="e_wo_entrp">   -328.43033784 </i>
    <i name="e_0_energy">   -328.44044737 </i>
   </energy>
  </scstep>
  <structure>
   <crystal>
    <varray name="basis" >
     <v>      -3.19000000      -3.19000000      -3.19000000 </v>
     <v>       1.59500000       1.59500000      -7.97500000 </v>
     <v>       7.97500000      -7.97500000      -1.59500000 </v>
    </varray>
    <i name="volume">    486.92638500 </i>
    <varray name="rec_basis" >
     <v>      -0.13584117      -0.12539185      -0.05224660 </v>
     <v>       0.04179728       0.06269592      -0.10449321 </v>
     <v>       0.06269592      -0.06269592       0.00000000 </v>
    </varray>
   </crystal>
   <varray name="positions" >
    <v>       0.96666667       0.93333333       0.40000000 </v>
    <v>       0.63333333       0.26666667       0.40000000 </v>
    <v>       0.50000000       0.00000000       0.00000000 </v>
    <v>       0.00000000       0.00000000       0.00000000 </v>
    <v>       0.10000000       0.20000000       0.80000000 </v>
    <v>       0.03333333       0.06666667       0.60000000 </v>
    <v>       0.90000000       0.80000000       0.20000000 </v>
    <v>       0.80000000       0.60000000       0.40000000 </v>
    <v>       0.73333333       0.46666667       0.20000000 </v>
    <v>       0.66666667       0.33333333       0.00000000 </v>
    <v>       0.36666667       0.73333333       0.60000000 </v>
    <v>       0.13333333       0.26666667       0.40000000 </v>
    <v>       0.83333333       0.66666667       0.00000000 </v>
    <v>       0.93333333       0.86666667       0.80000000 </v>
    <v>       0.56666667       0.13333333       0.20000000 </v>
    <v>       0.40000000       0.80000000       0.20000000 </v>
    <v>       0.43333333       0.86666667       0.80000000 </v>
    <v>       0.30000000       0.60000000       0.40000000 </v>
    <v>       0.86666667       0.73333333       0.60000000 </v>
    <v>       0.46666667       0.93333333       0.40000000 </v>
    <v>       0.16666667       0.33333333       0.00000000 </v>
    <v>       0.26666667       0.53333333       0.80000000 </v>
    <v>       0.20000000       0.40000000       0.60000000 </v>
    <v>       0.06666667       0.13333333       0.20000000 </v>
    <v>       0.76666667       0.53333333       0.80000000 </v>
    <v>       0.70000000       0.40000000       0.60000000 </v>
    <v>       0.60000000       0.20000000       0.80000000 </v>
    <v>       0.53333333       0.06666667       0.60000000 </v>
    <v>       0.33333333       0.66666667       0.00000000 </v>
   </varray>
  </structure>
  <varray name="forces" >
   <v>      -0.30906175       0.59340691       0.29360122 </v>
   <v>       0.04110196      -0.15605902       0.03254477 </v>
   <v>       0.14488087       0.04314254      -0.38818317 </v>
   <v>       0.41400882      -0.18977324      -0.06454200 </v>
   <v>       0.15155476       0.47684174      -0.54591351 </v>
   <v>      -0.35863857       0.11522927      -0.19429426 </v>
   <v>       0.29640549      -0.45541472       0.19018423 </v>
   <v>      -0.58914752      -0.03620834       0.65821334 </v>
   <v>      -0.02723594       0.14028377      -0.08832509 </v>
   <v>       0.03360510       0.27627955      -0.73253869 </v>
   <v>      -0.11225649      -0.34004901       0.37304191 </v>
   <v>       0.09063217       0.41113783      -0.59647253 </v>
   <v>       0.34829903      -0.44573757       0.34756775 </v>
   <v>       0.16047011       0.17900581      -0.12431557 </v>
   <v>      -0.05428262       0.43091954      -0.48544285 </v>
   <v>      -0.78601296      -0.25584333       0.53411467 </v>
   <v>      -0.96919503       0.03663325       0.78097762 </v>
   <v>       0.06066322      -0.02709741      -0.06359409 </v>
   <v>      -0.07687996       0.32263913       0.26047866 </v>
   <v>       0.41345423      -0.40749858       0.17880193 </v>
   <v>       0.26846932      -0.29128372      -0.48639595 </v>
   <v>      -0.11369866      -0.10934875      -0.23963930 </v>
   <v>      -0.39884919       0.09592218       0.50283403 </v>
   <v>       0.77515939      -0.07710043      -0.19120043 </v>
   <v>      -0.18298757      -0.28386242       0.62712502 </v>
   <v>       0.76006960       0.22905697      -0.76392238 </v>
   <v>       0.03106853       0.53994235      -0.07665519 </v>
   <v>       0.13365231      -0.27982597      -0.47081451 </v>
   <v>      -0.14524866      -0.53533833       0.73276437 </v>
  </varray>
  <varray name="stress" >
   <v>     -21.74906765      -0.53455842      11.22851617 </v>
   <v>      -0.53455846     -21.28513819      -1.54130527 </v>
   <v>      11.22851619      -1.54130537     -24.66094798 </v>
  </varray>
  <energy>
   <i name="e_fr_energy">   -328.44550213 </i>
   <i name="e_wo_entrp">   -328.44044737 </i>
   <i name="e_0_energy">     -0.01516429 </i>
  </energy>
  <time name="totalsc">  515.13  516.02</time>
 </calculation>
 <calculation>
  <scstep>
   <time name="dav">   18.64   18.67</time>
   <time name="total">   19.26   19.29</time>
   <energy>
    <i name="alphaZ">   1336.66948477 </i>
    <i name="ewald"> -11566.66489457 </i>
    <i name="hartreedc">  -3132.86987874 </i>
    <i name="XCdc">   -847.38739601 </i>
    <i name="pawpsdc">  20669.69627211 </i>
    <i name="pawaedc"> -19164.29470382 </i>
    <i name="eentropy">     -0.01817076 </i>
    <i name="bandstr">   -630.82516476 </i>
    <i name="atom">  13006.21773402 </i>
    <i name="e_fr_energy">   -329.47671776 </i>
    <i name="e_wo_entrp">   -329.45854700 </i>
    <i name="e_0_energy">   -329.47066084 </i>
   </energy>
  </scstep>
  <scstep>
   <time name="dav">   25.34   25.37</time>
   <time name="total">   25.95   25.98</time>
   <energy>
    <i name="e_fr_energy">   -329.72089659 </i>
    <i name="e_wo_entrp">   -329.71785357 </i>
    <i name="e_0_energy">   -329.71988225 </i>
   </energy>
  </scstep>
  <scstep>
   <time name="dav">   25.31   25.35</time>
   <time name="total">   25.93   25.97</time>
   <energy>
    <i name="e_fr_energy">   -329.38105262 </i>
    <i name="e_wo_entrp">   -329.36728605 </i>
    <i name="e_0_energy">   -329.37646376 </i>
   </energy>
  </scstep>
  <scstep>
   <time name="dav">   25.93   25.97</time>
   <time name="total">   26.55   26.58</time>
   <energy>
    <i name="e_fr_energy">   -329.03758094 </i>
    <i name="e_wo_entrp">   -329.02326375 </i>
    <i name="e_0_energy">   -329.03280854 </i>
   </energy>
  </scstep>
  <scstep>
   <time name="dav">   25.39   25.42</time>
   <time name="total">   26.00   26.04</time>
   <energy>
    <i name="e_fr_energy">   -328.83232117 </i>
    <i name="e_wo_entrp">   -328.82015896 </i>
    <i name="e_0_energy">   -328.82826710 </i>
   </energy>
  </scstep>
  <scstep>
   <time name="dav">   26.67   26.70</time>
   <time name="total">   27.28   27.33</time>
   <energy>
    <i name="e_fr_energy">   -328.79635838 </i>
    <i name="e_wo_entrp">   -328.78084253 </i>
    <i name="e_0_energy">   -328.79118643 </i>
   </energy>
  </scstep>
  <scstep>
   <time name="dav">   27.48   27.52</time>
   <time name="total">   28.10   28.13</time>
   <energy>
    <i name="e_fr_energy">   -328.79013147 </i>
    <i name="e_wo_entrp">   -328.77634293 </i>
    <i name="e_0_energy">   -328.78553529 </i>
   </energy>
  </scstep>
  <scstep>
   <time name="dav">   26.08   26.14</time>
   <time name="total">   26.69   26.75</time>
   <energy>
    <i name="e_fr_energy">   -328.78889552 </i>
    <i name="e_wo_entrp">   -328.77483795 </i>
    <i name="e_0_energy">   -328.78420966 </i>
   </energy>
  </scstep>
  <scstep>
   <time name="dav">   25.20   25.24</time>
   <time name="total">   25.82   25.87</time>
   <energy>
    <i name="e_fr_energy">   -328.78864410 </i>
    <i name="e_wo_entrp">   -328.77374082 </i>
    <i name="e_0_energy">   -328.78367634 </i>
   </energy>
  </scstep>
  <scstep>
   <time name="dav">   26.38   26.42</time>
   <time name="total">   26.99   27.03</time>
   <energy>
    <i name="e_fr_energy">   -328.79183725 </i>
    <i name="e_wo_entrp">   -328.77738635 </i>
    <i name="e_0_energy">   -328.78702028 </i>
   </energy>
  </scstep>
  <scstep>
   <time name="dav">   25.61   25.65</time>
   <time name="total">   26.23   26.26</time>
   <energy>
    <i name="e_fr_energy">   -328.79281906 </i>
    <i name="e_wo_entrp">   -328.77799201 </i>
    <i name="e_0_energy">   -328.78787671 </i>
   </energy>
  </scstep>
  <scstep>
   <time name="dav">   24.81   24.84</time>
   <time name="total">   25.43   25.47</time>
   <energy>
    <i name="e_fr_energy">   -328.79274452 </i>
    <i name="e_wo_entrp">   -328.77803182 </i>
    <i name="e_0_energy">   -328.78784029 </i>
   </energy>
  </scstep>
  <scstep>
   <time name="dav">   24.57   24.60</time>
   <time name="total">   25.18   25.21</time>
   <energy>
    <i name="e_fr_energy">   -328.79285313 </i>
    <i name="e_wo_entrp">   -328.77816627 </i>
    <i name="e_0_energy">   -328.78795751 </i>
   </energy>
  </scstep>
  <scstep>
   <time name="dav">   19.96   19.98</time>
   <time name="total">   19.99   20.02</time>
   <energy>
    <i name="alphaZ">   1336.66948477 </i>
    <i name="ewald"> -11566.66489457 </i>
    <i name="hartreedc">  -3069.77385314 </i>
    <i name="XCdc">   -849.18077706 </i>
    <i name="pawpsdc">  21753.48315410 </i>
    <i name="pawaedc"> -20248.73566146 </i>
    <i name="eentropy">     -0.01473619 </i>
    <i name="bandstr">   -690.79330685 </i>
    <i name="atom">  13006.21773402 </i>
    <i name="e_fr_energy">   -328.79285637 </i>
    <i name="e_wo_entrp">   -328.77812018 </i>
    <i name="e_0_energy">   -328.78794430 </i>
   </energy>
  </scstep>
  <structure>
   <crystal>
    <varray name="basis" >
     <v>      -3.17217048      -3.15232372      -3.16585057 </v>
     <v>       1.53175768       1.58361924      -7.86775626 </v>
     <v>       7.88040928      -7.89009152      -1.52362613 </v>
    </varray>
    <i name="volume">    470.43446367 </i>
    <varray name="rec_basis" >
     <v>      -0.13708639      -0.12683449      -0.05221827 </v>
     <v>       0.04288778       0.06330616      -0.10600906 </v>
     <v>       0.06337804      -0.06336096      -0.00041433 </v>
    </varray>
   </crystal>
   <varray name="positions" >
    <v>       0.96436237       0.93302491       0.39727038 </v>
    <v>       0.63392598       0.26611347       0.40059634 </v>
    <v>       0.49976799       0.00237947       0.00030772 </v>
    <v>      -0.00140248       0.00058618       0.00182621 </v>
    <v>       0.09749827       0.20449983       0.79901613 </v>
    <v>       0.03547628       0.06727147       0.59856673 </v>
    <v>       0.90033310       0.79826150       0.20227397 </v>
    <v>       0.80242088       0.59538445       0.39832757 </v>
    <v>       0.73288583       0.46748131       0.19949332 </v>
    <v>       0.66662154       0.33792948      -0.00073400 </v>
    <v>       0.36851910       0.73019794       0.60068899 </v>
    <v>       0.13175573       0.27109979       0.39903059 </v>
    <v>       0.83287113       0.66426870       0.00240166 </v>
    <v>       0.93151221       0.86815835       0.79994394 </v>
    <v>       0.56563923       0.13697437       0.19853245 </v>
    <v>       0.40535242       0.79494876       0.19839644 </v>
    <v>       0.43749472       0.86088624       0.79695775 </v>
    <v>       0.29992666       0.60036094       0.40026544 </v>
    <v>       0.86456223       0.73284109       0.59879161 </v>
    <v>       0.46597155       0.93203315       0.40248307 </v>
    <v>       0.16789531       0.33544559       0.00169304 </v>
    <v>       0.26867727       0.53398136       0.79998684 </v>
    <v>       0.20076614       0.39695108       0.59850351 </v>
    <v>       0.06253511       0.13562702       0.20257776 </v>
    <v>       0.76800232       0.52894442       0.80030511 </v>
    <v>       0.69555886       0.40607638       0.60160611 </v>
    <v>       0.59672337       0.20208219       0.79846085 </v>
    <v>       0.53533689       0.06846319       0.60125061 </v>
    <v>       0.33567664       0.66106071       0.00117987 </v>
   </varray>
  </structure>
  <varray name="forces" >
   <v>      -0.15718792       0.34443136       0.21221619 </v>
   <v>       0.00442102      -0.00678079       0.06950485 </v>
   <v>       0.01787866       0.10660288      -0.08277072 </v>
   <v>       0.13847070      -0.11888390      -0.12009752 </v>
   <v>       0.00771676       0.09969612      -0.10936990 </v>
   <v>      -0.17082216       0.05792439      -0.13104151 </v>
   <v>      -0.00177674      -0.40078071       0.23198082 </v>
   <v>      -0.32191914       0.00957077       0.18771055 </v>
   <v>      -0.04611592      -0.05843791       0.07170459 </v>
   <v>       0.03706481       0.06645331      -0.22093509 </v>
   <v>      -0.12392177      -0.08135678       0.22604989 </v>
   <v>      -0.03353695       0.19457190      -0.37038873 </v>
   <v>       0.09648338      -0.25434251      -0.11105393 </v>
   <v>       0.03577847      -0.04074723      -0.10616549 </v>
   <v>       0.31889182       0.49076541      -0.37089379 </v>
   <v>      -0.16656562      -0.15869361       0.21750315 </v>
   <v>      -0.20016431       0.03837444       0.22839548 </v>
   <v>      -0.08549942       0.02805600       0.13095212 </v>
   <v>      -0.15964832       0.23700956       0.12376740 </v>
   <v>       0.16949262      -0.20710811       0.13514998 </v>
   <v>       0.27843496      -0.40130651      -0.44354712 </v>
   <v>      -0.04042539      -0.01393801      -0.00450486 </v>
   <v>      -0.19840693       0.17980023       0.25575740 </v>
   <v>       0.44052981      -0.03440106      -0.25403956 </v>
   <v>      -0.13257233      -0.17533563       0.09638408 </v>
   <v>       0.22494287       0.20394537      -0.25181494 </v>
   <v>       0.05703376       0.17661077      -0.01838425 </v>
   <v>      -0.00225131      -0.02804700      -0.15826422 </v>
   <v>       0.01367457      -0.25365274       0.56619514 </v>
  </varray>
  <varray name="stress" >
   <v>      52.87896893       0.28973521       6.32225983 </v>
   <v>       0.28973514      51.96283550      -1.07564912 </v>
   <v>       6.32225977      -1.07564923      51.35887445 </v>
  </varray>
  <energy>
   <i name="e_fr_energy">   -328.79285637 </i>
   <i name="e_wo_entrp">   -328.78794430 </i>
   <i name="e_0_energy">     -0.01473619 </i>
  </energy>
  <time name="totalsc">  373.36  373.94</time>
 </calculation>
 <calculation>
  <scstep>
   <time name="dav">   18.74   18.77</time>
   <time name="total">   19.36   19.39</time>
   <energy>
    <i name="alphaZ">   1327.67607717 </i>
    <i name="ewald"> -11529.61510169 </i>
    <i name="hartreedc">  -3073.68660433 </i>
    <i name="XCdc">   -850.00640467 </i>
    <i name="pawpsdc">  21753.43044658 </i>
    <i name="pawaedc"> -20248.63346444 </i>
    <i name="eentropy">     -0.01368500 </i>
    <i name="bandstr">   -714.20960287 </i>
    <i name="atom">  13006.21773402 </i>
    <i name="e_fr_energy">   -328.84060523 </i>
    <i name="e_wo_entrp">   -328.82692023 </i>
    <i name="e_0_energy">   -328.83604356 </i>
   </energy>
  </scstep>
  <scstep>
   <time name="dav">   26.13   26.16</time>
   <time name="total">   26.74   26.77</time>
   <energy>
    <i name="e_fr_energy">   -328.84839100 </i>
    <i name="e_wo_entrp">   -328.83247088 </i>
    <i name="e_0_energy">   -328.84308429 </i>
   </energy>
  </scstep>
  <scstep>
   <time name="dav">   25.56   25.59</time>
   <time name="total">   26.18   26.22</time>
   <energy>
    <i name="e_fr_energy">   -328.84805318 </i>
    <i name="e_wo_entrp">   -328.83461277 </i>
    <i name="e_0_energy">   -328.84357304 </i>
   </energy>
  </scstep>
  <scstep>
   <time name="dav">   26.26   26.30</time>
   <time name="total">   26.88   26.92</time>
   <energy>
    <i name="e_fr_energy">   -328.82483413 </i>
    <i name="e_wo_entrp">   -328.81042643 </i>
    <i name="e_0_energy">   -328.82003156 </i>
   </energy>
  </scstep>
  <scstep>
   <time name="dav">   25.36   25.40</time>
   <time name="total">   25.97   26.01</time>
   <energy>
    <i name="e_fr_energy">   -328.81748253 </i>
    <i name="e_wo_entrp">   -328.80256249 </i>
    <i name="e_0_energy">   -328.81250918 </i>
   </energy>
  </scstep>
  <scstep>
   <time name="dav">   25.74   25.77</time>
   <time name="total">   26.36   26.40</time>
   <energy>
    <i name="e_fr_energy">   -328.81640079 </i>
    <i name="e_wo_entrp">   -328.80213073 </i>
    <i name="e_0_energy">   -328.81164410 </i>
   </energy>
  </scstep>
  <scstep>
   <time name="dav">   24.92   24.95</time>
   <time name="total">   25.55   25.58</time>
   <energy>
    <i name="e_fr_energy">   -328.81575976 </i>
    <i name="e_wo_entrp">   -328.80119878 </i>
    <i name="e_0_energy">   -328.81090610 </i>
   </energy>
  </scstep>
  <scstep>
   <time name="dav">   23.66   23.69</time>
   <time name="total">   24.28   24.31</time>
   <energy>
    <i name="e_fr_energy">   -328.81569244 </i>
    <i name="e_wo_entrp">   -328.80098709 </i>
    <i name="e_0_energy">   -328.81079066 </i>
   </energy>
  </scstep>
  <scstep>
   <time name="dav">   22.83   22.86</time>
   <time name="total">   23.47   23.50</time>
   <energy>
    <i name="e_fr_energy">   -328.81567666 </i>
    <i name="e_wo_entrp">   -328.80116860 </i>
    <i name="e_0_energy">   -328.81084064 </i>
   </energy>
  </scstep>
  <scstep>
   <time name="dav">   20.72   20.75</time>
   <time name="total">   20.75   20.78</time>
   <energy>
    <i name="alphaZ">   1327.67607717 </i>
    <i name="ewald"> -11529.61510169 </i>
    <i name="hartreedc">  -3086.18888231 </i>
    <i name="XCdc">   -849.64408042 </i>
    <i name="pawpsdc">  21529.10854018 </i>
    <i name="pawaedc"> -20023.71232071 </i>
    <i name="eentropy">     -0.01457259 </i>
    <i name="bandstr">   -702.64316502 </i>
    <i name="atom">  13006.21773402 </i>
    <i name="e_fr_energy">   -328.81577135 </i>
    <i name="e_wo_entrp">   -328.80119877 </i>
    <i name="e_0_energy">   -328.81091382 </i>
   </energy>
  </scstep>
  <structure>
   <crystal>
    <varray name="basis" >
     <v>      -3.17564485      -3.15966556      -3.17055649 </v>
     <v>       1.54408148       1.58583697      -7.88865447 </v>
     <v>       7.89884184      -7.90663733      -1.53753451 </v>
    </varray>
    <i name="volume">    473.62109101 </i>
    <varray name="rec_basis" >
     <v>      -0.13684148      -0.12655086      -0.05222480 </v>
     <v>       0.04267197       0.06318635      -0.10570976 </v>
     <v>       0.06324358      -0.06323021      -0.00033207 </v>
    </varray>
   </crystal>
   <varray name="positions" >
    <v>       0.96481575       0.93308896       0.39780912 </v>
    <v>       0.63380885       0.26622221       0.40047902 </v>
    <v>       0.49981558       0.00190853       0.00024558 </v>
    <v>      -0.00112689       0.00046788       0.00146625 </v>
    <v>       0.09799416       0.20361089       0.79920774 </v>
    <v>       0.03505611       0.06715387       0.59884829 </v>
    <v>       0.90026544       0.79860256       0.20182684 </v>
    <v>       0.80194157       0.59629949       0.39865959 </v>
    <v>       0.73297464       0.46732078       0.19959276 </v>
    <v>       0.66663467       0.33702148      -0.00059231 </v>
    <v>       0.36815210       0.73081734       0.60055477 </v>
    <v>       0.13206995       0.27022414       0.39921916 </v>
    <v>       0.83295914       0.66473992       0.00192999 </v>
    <v>       0.93187142       0.86786323       0.79995447 </v>
    <v>       0.56584479       0.13625602       0.19881958 </v>
    <v>       0.40429660       0.79595021       0.19871444 </v>
    <v>       0.43667275       0.86203351       0.79756007 </v>
    <v>       0.29994131       0.60028923       0.40021291 </v>
    <v>       0.86497572       0.73293966       0.59903061 </v>
    <v>       0.46610627       0.93228716       0.40199470 </v>
    <v>       0.16765521       0.33502597       0.00135769 </v>
    <v>       0.26828272       0.53385346       0.79998852 </v>
    <v>       0.20061334       0.39755592       0.59880024 </v>
    <v>       0.06334829       0.13516983       0.20206924 </v>
    <v>       0.76773589       0.52981211       0.80024749 </v>
    <v>       0.69643650       0.40487230       0.60128672 </v>
    <v>       0.59736958       0.20167193       0.79876366 </v>
    <v>       0.53494436       0.06810664       0.60100247 </v>
    <v>       0.33521085       0.66216812       0.00095039 </v>
   </varray>
  </structure>
  <varray name="forces" >
   <v>      -0.19619657       0.41101822       0.22989692 </v>
   <v>       0.00879668      -0.03772280       0.05933034 </v>
   <v>       0.04305814       0.09103238      -0.14637594 </v>
   <v>       0.19601216      -0.13508042      -0.11017072 </v>
   <v>       0.03829451       0.18752996      -0.21100752 </v>
   <v>      -0.21149983       0.07099120      -0.14880247 </v>
   <v>       0.06048564      -0.41616324       0.22172103 </v>
   <v>      -0.38961931      -0.00560896       0.29655933 </v>
   <v>      -0.04227650      -0.01601103       0.03435359 </v>
   <v>       0.04372306       0.11334526      -0.34056706 </v>
   <v>      -0.12309270      -0.15089381       0.26677782 </v>
   <v>      -0.00063639       0.25067470      -0.42842680 </v>
   <v>       0.15478346      -0.30267676      -0.00568111 </v>
   <v>       0.07745440      -0.00245060      -0.11059803 </v>
   <v>       0.23101961       0.47873480      -0.40253116 </v>
   <v>      -0.30340035      -0.16432104       0.29189140 </v>
   <v>      -0.36502991       0.03956889       0.35194889 </v>
   <v>      -0.05522708       0.01269892       0.10423093 </v>
   <v>      -0.14308398       0.25489619       0.15762853 </v>
   <v>       0.22082351      -0.25170467       0.14536666 </v>
   <v>       0.28559296      -0.38176810      -0.44990837 </v>
   <v>      -0.06270972      -0.03109886      -0.05567535 </v>
   <v>      -0.24337960       0.16568978       0.30679686 </v>
   <v>       0.51946632      -0.04226396      -0.24193531 </v>
   <v>      -0.14782321      -0.19688012       0.22156011 </v>
   <v>       0.34409292       0.21146179      -0.37436257 </v>
   <v>       0.04674899       0.25549832      -0.03004438 </v>
   <v>       0.03839083      -0.08567264      -0.23598805 </v>
   <v>      -0.02476805      -0.32282340       0.60401248 </v>
  </varray>
  <varray name="stress" >
   <v>      38.14662196       0.26622406       7.57599320 </v>
   <v>       0.26622391      37.44834167      -1.03065058 </v>
   <v>       7.57599327      -1.03065055      36.41534390 </v>
  </varray>
  <energy>
   <i name="e_fr_energy">   -328.81577135 </i>
   <i name="e_wo_entrp">   -328.81091382 </i>
   <i name="e_0_energy">     -0.01457259 </i>
  </energy>
  <time name="totalsc">  263.58  263.96</time>
 </calculation>
 <calculation>
  <scstep>
   <time name="dav">   18.34   18.36</time>
   <time name="total">   18.96   18.99</time>
   <energy>
    <i name="alphaZ">   1312.23282830 </i>
    <i name="ewald"> -11529.45678509 </i>
    <i name="hartreedc">  -3030.41117142 </i>
    <i name="XCdc">   -851.28376901 </i>
    <i name="pawpsdc">  21527.68064163 </i>
    <i name="pawaedc"> -20022.42584863 </i>
    <i name="eentropy">     -0.01498692 </i>
    <i name="bandstr">   -741.59578370 </i>
    <i name="atom">  13006.21773402 </i>
    <i name="e_fr_energy">   -329.05714082 </i>
    <i name="e_wo_entrp">   -329.04215390 </i>
    <i name="e_0_energy">   -329.05214518 </i>
   </energy>
  </scstep>
  <scstep>
   <time name="dav">   24.61   24.64</time>
   <time name="total">   25.23   25.26</time>
   <energy>
    <i name="e_fr_energy">   -329.20874828 </i>
    <i name="e_wo_entrp">   -329.19028022 </i>
    <i name="e_0_energy">   -329.20259226 </i>
   </energy>
  </scstep>
  <scstep>
   <time name="dav">   25.52   25.55</time>
   <time name="total">   26.13   26.17</time>
   <energy>
    <i name="e_fr_energy">   -329.17990168 </i>
    <i name="e_wo_entrp">   -329.16515751 </i>
    <i name="e_0_energy">   -329.17498695 </i>
   </energy>
  </scstep>
  <scstep>
   <time name="dav">   26.48   26.52</time>
   <time name="total">   27.12   27.16</time>
   <energy>
    <i name="e_fr_energy">   -329.11515909 </i>
    <i name="e_wo_entrp">   -329.09943009 </i>
    <i name="e_0_energy">   -329.10991609 </i>
   </energy>
  </scstep>
  <scstep>
   <time name="dav">   25.88   25.91</time>
   <time name="total">   26.50   26.53</time>
   <energy>
    <i name="e_fr_energy">   -329.10238677 </i>
    <i name="e_wo_entrp">   -329.08629794 </i>
    <i name="e_0_energy">   -329.09702382 </i>
   </energy>
  </scstep>
  <scstep>
   <time name="dav">   26.25   26.29</time>
   <time name="total">   26.87   26.91</time>
   <energy>
    <i name="e_fr_energy">   -329.09566788 </i>
    <i name="e_wo_entrp">   -329.07961420 </i>
    <i name="e_0_energy">   -329.09031666 </i>
   </energy>
  </scstep>
  <scstep>
   <time name="dav">   27.58   27.61</time>
   <time name="total">   28.21   28.25</time>
   <energy>
    <i name="e_fr_energy">   -329.09221508 </i>
    <i name="e_wo_entrp">   -329.07619081 </i>
    <i name="e_0_energy">   -329.08687366 </i>
   </energy>
  </scstep>
  <scstep>
   <time name="dav">   27.03   27.07</time>
   <time name="total">   27.65   27.70</time>
   <energy>
    <i name="e_fr_energy">   -329.09142976 </i>
    <i name="e_wo_entrp">   -329.07524865 </i>
    <i name="e_0_energy">   -329.08603606 </i>
   </energy>
  </scstep>
  <scstep>
   <time name="dav">   24.96   25.00</time>
   <time name="total">   25.58   25.61</time>
   <energy>
    <i name="e_fr_energy">   -329.09125047 </i>
    <i name="e_wo_entrp">   -329.07527446 </i>
    <i name="e_0_energy">   -329.08592513 </i>
   </energy>
  </scstep>
  <scstep>
   <time name="dav">   23.64   23.67</time>
   <time name="total">   24.27   24.31</time>
   <energy>
    <i name="e_fr_energy">   -329.09146082 </i>
    <i name="e_wo_entrp">   -329.07541279 </i>
    <i name="e_0_energy">   -329.08611148 </i>
   </energy>
  </scstep>
  <scstep>
   <time name="dav">   24.15   24.18</time>
   <time name="total">   24.78   24.81</time>
   <energy>
    <i name="e_fr_energy">   -329.09166558 </i>
    <i name="e_wo_entrp">   -329.07574444 </i>
    <i name="e_0_energy">   -329.08635853 </i>
   </energy>
  </scstep>
  <scstep>
   <time name="dav">   22.68   22.71</time>
   <time name="total">   23.30   23.33</time>
   <energy>
    <i name="e_fr_energy">   -329.09158146 </i>
    <i name="e_wo_entrp">   -329.07549643 </i>
    <i name="e_0_energy">   -329.08621978 </i>
   </energy>
  </scstep>
  <scstep>
   <time name="dav">   16.40   16.42</time>
   <time name="total">   16.43   16.46</time>
   <energy>
    <i name="alphaZ">   1312.23282830 </i>
    <i name="ewald"> -11529.45678509 </i>
    <i name="hartreedc">  -3049.05809232 </i>
    <i name="XCdc">   -850.65572500 </i>
    <i name="pawpsdc">  21121.74461892 </i>
    <i name="pawaedc"> -19617.05471240 </i>
    <i name="eentropy">     -0.01601220 </i>
    <i name="bandstr">   -723.04538371 </i>
    <i name="atom">  13006.21773402 </i>
    <i name="e_fr_energy">   -329.09152948 </i>
    <i name="e_wo_entrp">   -329.07551728 </i>
    <i name="e_0_energy">   -329.08619208 </i>
   </energy>
  </scstep>
  <structure>
   <crystal>
    <varray name="basis" >
     <v>      -3.20423017      -3.17087171      -3.19358543 </v>
     <v>       1.51320733       1.59761988      -7.90724516 </v>
     <v>       7.92623692      -7.93987062      -1.49975276 </v>
    </varray>
    <i name="volume">    479.19498629 </i>
    <varray name="rec_basis" >
     <v>      -0.13601674      -0.12605570      -0.05149842 </v>
     <v>       0.04299112       0.06285264      -0.10554003 </v>
     <v>       0.06297018      -0.06295807      -0.00066978 </v>
    </varray>
   </crystal>
   <varray name="positions" >
    <v>       0.96273350       0.93276001       0.39547879 </v>
    <v>       0.63411719       0.26573871       0.40084964 </v>
    <v>       0.49945065       0.00367951       0.00032727 </v>
    <v>      -0.00192509       0.00105431       0.00290466 </v>
    <v>       0.09628875       0.20676008       0.79848609 </v>
    <v>       0.03681777       0.06773357       0.59768730 </v>
    <v>       0.90125981       0.79655375       0.20371489 </v>
    <v>       0.80412230       0.59277087       0.39720748 </v>
    <v>       0.73290114       0.46756544       0.19929868 </v>
    <v>       0.66653970       0.34045098      -0.00106035 </v>
    <v>       0.36963337       0.72816969       0.60093736 </v>
    <v>       0.13104317       0.27397546       0.39834482 </v>
    <v>       0.83317220       0.66324641       0.00385196 </v>
    <v>       0.93084844       0.86898285       0.80005537 </v>
    <v>       0.56353817       0.14015095       0.19770138 </v>
    <v>       0.40815233       0.79205594       0.19768663 </v>
    <v>       0.43942078       0.85786905       0.79539039 </v>
    <v>       0.29991703       0.60015481       0.40023710 </v>
    <v>       0.86340270       0.73252346       0.59779236 </v>
    <v>       0.46561434       0.93109401       0.40398133 </v>
    <v>       0.16908630       0.33698176       0.00326981 </v>
    <v>       0.26967022       0.53420855       0.79993406 </v>
    <v>       0.20090685       0.39521362       0.59739736 </v>
    <v>       0.05995460       0.13745713       0.20425114 </v>
    <v>       0.76925226       0.52655680       0.80047067 </v>
    <v>       0.69285127       0.40961682       0.60230808 </v>
    <v>       0.59479983       0.20324636       0.79766524 </v>
    <v>       0.53638957       0.06954014       0.60182911 </v>
    <v>       0.33670750       0.65722225       0.00200139 </v>
   </varray>
  </structure>
  <varray name="forces" >
   <v>      -0.08398498       0.14651788       0.17892725 </v>
   <v>       0.03943132      -0.03216770       0.04249330 </v>
   <v>      -0.08246201       0.06007709       0.06192389 </v>
   <v>       0.01982573      -0.08517877      -0.02516693 </v>
   <v>      -0.04660793      -0.08648130       0.11599679 </v>
   <v>      -0.06762347       0.02409896      -0.07179685 </v>
   <v>      -0.07396620      -0.17212438       0.14037408 </v>
   <v>      -0.12436419       0.04628685       0.00039219 </v>
   <v>      -0.00599341      -0.09719615       0.10594682 </v>
   <v>      -0.07112930      -0.02624337       0.05477596 </v>
   <v>      -0.09575581       0.08471666       0.12231270 </v>
   <v>       0.00416837      -0.00459027      -0.15247304 </v>
   <v>       0.00678738      -0.00135017      -0.31110518 </v>
   <v>       0.06555251      -0.06988030      -0.08517372 </v>
   <v>       0.27734658       0.34329274      -0.20355721 </v>
   <v>       0.03588614      -0.05473441       0.04615705 </v>
   <v>       0.11365392      -0.02240238      -0.04725998 </v>
   <v>      -0.09580850       0.01645703       0.07830562 </v>
   <v>      -0.09277074       0.16396543       0.01079259 </v>
   <v>       0.04902310      -0.06896453       0.06950190 </v>
   <v>       0.17223665      -0.34183491      -0.33227867 </v>
   <v>       0.01239466      -0.00689775       0.05857346 </v>
   <v>      -0.12702292       0.19688894       0.16450025 </v>
   <v>       0.25305308      -0.00531157      -0.17256963 </v>
   <v>      -0.02123178      -0.07307508      -0.17880407 </v>
   <v>      -0.02218691       0.11743109       0.06486730 </v>
   <v>      -0.03214010      -0.03758848       0.04821229 </v>
   <v>      -0.02388677       0.00379243      -0.00420883 </v>
   <v>       0.01757558      -0.01750357       0.22034066 </v>
  </varray>
  <varray name="stress" >
   <v>      13.05345263       1.06837857       3.00953448 </v>
   <v>       1.06837868      11.27991706      -0.79073666 </v>
   <v>       3.00953445      -0.79073683      12.17714892 </v>
  </varray>
  <energy>
   <i name="e_fr_energy">   -329.09152948 </i>
   <i name="e_wo_entrp">   -329.08619208 </i>
   <i name="e_0_energy">     -0.01601220 </i>
  </energy>
  <time name="totalsc">  338.83  339.34</time>
 </calculation>
 <calculation>
  <scstep>
   <time name="dav">   18.23   18.26</time>
   <time name="total">   18.85   18.88</time>
   <energy>
    <i name="alphaZ">   1306.56941525 </i>
    <i name="ewald"> -11528.02410247 </i>
    <i name="hartreedc">  -3029.51657053 </i>
    <i name="XCdc">   -851.26233349 </i>
    <i name="pawpsdc">  21121.70850114 </i>
    <i name="pawaedc"> -19617.04555740 </i>
    <i name="eentropy">     -0.01634074 </i>
    <i name="bandstr">   -737.73833881 </i>
    <i name="atom">  13006.21773402 </i>
    <i name="e_fr_energy">   -329.10759301 </i>
    <i name="e_wo_entrp">   -329.09125228 </i>
    <i name="e_0_energy">   -329.10214610 </i>
   </energy>
  </scstep>
  <scstep>
   <time name="dav">   24.31   24.35</time>
   <time name="total">   24.93   24.97</time>
   <energy>
    <i name="e_fr_energy">   -329.12909796 </i>
    <i name="e_wo_entrp">   -329.11154983 </i>
    <i name="e_0_energy">   -329.12324858 </i>
   </energy>
  </scstep>
  <scstep>
   <time name="dav">   25.06   25.09</time>
   <time name="total">   25.68   25.72</time>
   <energy>
    <i name="e_fr_energy">   -329.12241749 </i>
    <i name="e_wo_entrp">   -329.10601679 </i>
    <i name="e_0_energy">   -329.11695059 </i>
   </energy>
  </scstep>
  <scstep>
   <time name="dav">   25.35   25.38</time>
   <time name="total">   25.97   26.00</time>
   <energy>
    <i name="e_fr_energy">   -329.11469966 </i>
    <i name="e_wo_entrp">   -329.09800644 </i>
    <i name="e_0_energy">   -329.10913525 </i>
   </energy>
  </scstep>
  <scstep>
   <time name="dav">   25.13   25.16</time>
   <time name="total">   25.75   25.78</time>
   <energy>
    <i name="e_fr_energy">   -329.11294268 </i>
    <i name="e_wo_entrp">   -329.09632695 </i>
    <i name="e_0_energy">   -329.10740410 </i>
   </energy>
  </scstep>
  <scstep>
   <time name="dav">   25.53   25.56</time>
   <time name="total">   26.15   26.20</time>
   <energy>
    <i name="e_fr_energy">   -329.11193737 </i>
    <i name="e_wo_entrp">   -329.09519030 </i>
    <i name="e_0_energy">   -329.10635501 </i>
   </energy>
  </scstep>
  <scstep>
   <time name="dav">   24.83   24.87</time>
   <time name="total">   25.45   25.48</time>
   <energy>
    <i name="e_fr_energy">   -329.11148365 </i>
    <i name="e_wo_entrp">   -329.09483241 </i>
    <i name="e_0_energy">   -329.10593324 </i>
   </energy>
  </scstep>
  <scstep>
   <time name="dav">   23.04   23.07</time>
   <time name="total">   23.66   23.69</time>
   <energy>
    <i name="e_fr_energy">   -329.11127158 </i>
    <i name="e_wo_entrp">   -329.09453782 </i>
    <i name="e_0_energy">   -329.10569366 </i>
   </energy>
  </scstep>
  <scstep>
   <time name="dav">   19.42   19.44</time>
   <time name="total">   19.46   19.49</time>
   <energy>
    <i name="alphaZ">   1306.56941525 </i>
    <i name="ewald"> -11528.02410247 </i>
    <i name="hartreedc">  -3036.92552525 </i>
    <i name="XCdc">   -851.01627586 </i>
    <i name="pawpsdc">  20988.53053546 </i>
    <i name="pawaedc"> -19483.68219235 </i>
    <i name="eentropy">     -0.01666045 </i>
    <i name="bandstr">   -730.76417800 </i>
    <i name="atom">  13006.21773402 </i>
    <i name="e_fr_energy">   -329.11124964 </i>
    <i name="e_wo_entrp">   -329.09458920 </i>
    <i name="e_0_energy">   -329.10569616 </i>
   </energy>
  </scstep>
  <structure>
   <crystal>
    <varray name="basis" >
     <v>      -3.21485458      -3.17503674      -3.20214468 </v>
     <v>       1.50173221       1.60199928      -7.91415484 </v>
     <v>       7.93641895      -7.95222255      -1.48571028 </v>
    </varray>
    <i name="volume">    481.27208921 </i>
    <varray name="rec_basis" >
     <v>      -0.13571372      -0.12587248      -0.05123141 </v>
     <v>       0.04310863       0.06272939      -0.10547809 </v>
     <v>       0.06286998      -0.06285763      -0.00079402 </v>
    </varray>
   </crystal>
   <varray name="positions" >
    <v>       0.96196376       0.93263406       0.39461478 </v>
    <v>       0.63423192       0.26555988       0.40098651 </v>
    <v>       0.49931353       0.00433705       0.00035912 </v>
    <v>      -0.00221984       0.00127474       0.00343751 </v>
    <v>       0.09565431       0.20792795       0.79822134 </v>
    <v>       0.03746685       0.06794629       0.59725871 </v>
    <v>       0.90163084       0.79579656       0.20441233 </v>
    <v>       0.80493157       0.59145814       0.39666718 </v>
    <v>       0.73287350       0.46765573       0.19919001 </v>
    <v>       0.66649970       0.34172304      -0.00123028 </v>
    <v>       0.37018417       0.72718740       0.60107699 </v>
    <v>       0.13065842       0.27536641       0.39802440 </v>
    <v>       0.83325398       0.66269553       0.00456220 </v>
    <v>       0.93046922       0.86939879       0.80009344 </v>
    <v>       0.56268050       0.14159500       0.19729030 </v>
    <v>       0.40958085       0.79060795       0.19730374 </v>
    <v>       0.44044001       0.85631891       0.79458399 </v>
    <v>       0.29990827       0.60010497       0.40024591 </v>
    <v>       0.86282173       0.73236702       0.59733283 </v>
    <v>       0.46543542       0.93065487       0.40471553 </v>
    <v>       0.16961313       0.33771089       0.00398032 </v>
    <v>       0.27018206       0.53433999       0.79991481 </v>
    <v>       0.20101766       0.39434164       0.59687571 </v>
    <v>       0.05869952       0.13831069       0.20505993 </v>
    <v>       0.76981676       0.52534867       0.80055068 </v>
    <v>       0.69152146       0.41138033       0.60268953 </v>
    <v>       0.59384816       0.20382920       0.79725907 </v>
    <v>       0.53692173       0.07007345       0.60213719 </v>
    <v>       0.33726749       0.65538817       0.00238622 </v>
   </varray>
  </structure>
  <varray name="forces" >
   <v>      -0.03457149       0.04216585       0.15093127 </v>
   <v>       0.04650703      -0.02722152       0.03146514 </v>
   <v>      -0.12738243       0.04449565       0.13436997 </v>
   <v>      -0.03452988      -0.06780670       0.00310828 </v>
   <v>      -0.08461831      -0.18761305       0.23712768 </v>
   <v>      -0.02186588       0.00981007      -0.04380090 </v>
   <v>      -0.13329055      -0.07802824       0.11760375 </v>
   <v>      -0.02167310       0.07000250      -0.11563044 </v>
   <v>       0.00101988      -0.13027582       0.13566766 </v>
   <v>      -0.11612057      -0.08196402       0.20623333 </v>
   <v>      -0.08127846       0.18185183       0.05901489 </v>
   <v>      -0.00346733      -0.09390083      -0.04306790 </v>
   <v>      -0.04924646       0.10187006      -0.43293756 </v>
   <v>       0.06604354      -0.10507045      -0.09121133 </v>
   <v>       0.29393772       0.28905836      -0.13519469 </v>
   <v>       0.18492807       0.00594113      -0.04516615 </v>
   <v>       0.27513040      -0.04657762      -0.16057198 </v>
   <v>      -0.11478327       0.01328829       0.07139396 </v>
   <v>      -0.07680867       0.13187614      -0.03962960 </v>
   <v>      -0.01396905      -0.01109888       0.04881219 </v>
   <v>       0.13254089      -0.32014316      -0.28769519 </v>
   <v>       0.03671903      -0.00190568       0.10259704 </v>
   <v>      -0.08377861       0.19862397       0.10401750 </v>
   <v>       0.16610422       0.01183151      -0.14335287 </v>
   <v>       0.03305684      -0.02221496      -0.33371983 </v>
   <v>      -0.16182691       0.07896754       0.23511887 </v>
   <v>      -0.05883173      -0.14105370       0.07135226 </v>
   <v>      -0.05596380       0.04021365       0.08561633 </v>
   <v>       0.03801887       0.09487809       0.07754830 </v>
  </varray>
  <varray name="stress" >
   <v>       5.14066785       1.56310609       1.16189780 </v>
   <v>       1.56310605       2.94244679      -0.76207107 </v>
   <v>       1.16189764      -0.76207111       4.80660802 </v>
  </varray>
  <energy>
   <i name="e_fr_energy">   -329.11124964 </i>
   <i name="e_wo_entrp">   -329.10569616 </i>
   <i name="e_0_energy">     -0.01666045 </i>
  </energy>
  <time name="totalsc">  234.20  234.54</time>
 </calculation>
 <calculation>
  <scstep>
   <time name="dav">   18.43   18.46</time>
   <time name="total">   19.06   19.08</time>
   <energy>
    <i name="alphaZ">   1301.85611006 </i>
    <i name="ewald"> -11512.28171701 </i>
    <i name="hartreedc">  -3035.10459845 </i>
    <i name="XCdc">   -851.48224092 </i>
    <i name="pawpsdc">  20987.39109947 </i>
    <i name="pawaedc"> -19482.71226829 </i>
    <i name="eentropy">     -0.01557780 </i>
    <i name="bandstr">   -743.01473768 </i>
    <i name="atom">  13006.21773402 </i>
    <i name="e_fr_energy">   -329.14619659 </i>
    <i name="e_wo_entrp">   -329.13061879 </i>
    <i name="e_0_energy">   -329.14100399 </i>
   </energy>
  </scstep>
  <scstep>
   <time name="dav">   24.77   24.79</time>
   <time name="total">   25.39   25.42</time>
   <energy>
    <i name="e_fr_energy">   -329.16046038 </i>
    <i name="e_wo_entrp">   -329.14297148 </i>
    <i name="e_0_energy">   -329.15463075 </i>
   </energy>
  </scstep>
  <scstep>
   <time name="dav">   25.50   25.52</time>
   <time name="total">   26.13   26.17</time>
   <energy>
    <i name="e_fr_energy">   -329.15366019 </i>
    <i name="e_wo_entrp">   -329.13738018 </i>
    <i name="e_0_energy">   -329.14823352 </i>
   </energy>
  </scstep>
  <scstep>
   <time name="dav">   24.47   24.49</time>
   <time name="total">   25.09   25.11</time>
   <energy>
    <i name="e_fr_energy">   -329.14910788 </i>
    <i name="e_wo_entrp">   -329.13295541 </i>
    <i name="e_0_energy">   -329.14372373 </i>
   </energy>
  </scstep>
  <scstep>
   <time name="dav">   24.92   24.94</time>
   <time name="total">   25.53   25.56</time>
   <energy>
    <i name="e_fr_energy">   -329.14678056 </i>
    <i name="e_wo_entrp">   -329.13031359 </i>
    <i name="e_0_energy">   -329.14129157 </i>
   </energy>
  </scstep>
  <scstep>
   <time name="dav">   26.03   26.05</time>
   <time name="total">   26.67   26.70</time>
   <energy>
    <i name="e_fr_energy">   -329.14622388 </i>
    <i name="e_wo_entrp">   -329.12970128 </i>
    <i name="e_0_energy">   -329.14071634 </i>
   </energy>
  </scstep>
  <scstep>
   <time name="dav">   23.19   23.21</time>
   <time name="total">   23.81   23.83</time>
   <energy>
    <i name="e_fr_energy">   -329.14621154 </i>
    <i name="e_wo_entrp">   -329.12971383 </i>
    <i name="e_0_energy">   -329.14071230 </i>
   </energy>
  </scstep>
  <scstep>
   <time name="dav">   19.98   20.00</time>
   <time name="total">   20.01   20.04</time>
   <energy>
    <i name="alphaZ">   1301.85611006 </i>
    <i name="ewald"> -11512.28171701 </i>
    <i name="hartreedc">  -3041.86764674 </i>
    <i name="XCdc">   -851.27679722 </i>
    <i name="pawpsdc">  20861.23371389 </i>
    <i name="pawaedc"> -19356.29419647 </i>
    <i name="eentropy">     -0.01651744 </i>
    <i name="bandstr">   -736.71682636 </i>
    <i name="atom">  13006.21773402 </i>
    <i name="e_fr_energy">   -329.14614326 </i>
    <i name="e_wo_entrp">   -329.12962582 </i>
    <i name="e_0_energy">   -329.14063745 </i>
   </energy>
  </scstep>
  <structure>
   <crystal>
    <varray name="basis" >
     <v>      -3.22193505      -3.17838370      -3.20684206 </v>
     <v>       1.50198207       1.60567259      -7.92466252 </v>
     <v>       7.94389833      -7.95501892      -1.48338926 </v>
    </varray>
    <i name="volume">    483.01451083 </i>
    <varray name="rec_basis" >
     <v>      -0.13544661      -0.12572022      -0.05114462 </v>
     <v>       0.04305400       0.06263624      -0.10533702 </v>
     <v>       0.06280713      -0.06283324      -0.00082709 </v>
    </varray>
   </crystal>
   <varray name="positions" >
    <v>       0.96173603       0.93223527       0.39447859 </v>
    <v>       0.63411095       0.26547777       0.40111133 </v>
    <v>       0.49944267       0.00388392       0.00006480 </v>
    <v>      -0.00186837       0.00111168       0.00349560 </v>
    <v>       0.09627149       0.20684092       0.79839006 </v>
    <v>       0.03757625       0.06806281       0.59720454 </v>
    <v>       0.90222255       0.79517231       0.20431830 </v>
    <v>       0.80493565       0.59187622       0.39651242 </v>
    <v>       0.73312459       0.46705061       0.19940943 </v>
    <v>       0.66691806       0.34086645      -0.00129322 </v>
    <v>       0.36978439       0.72722952       0.60062988 </v>
    <v>       0.13104830       0.27533052       0.39817766 </v>
    <v>       0.83368705       0.66404100       0.00431747 </v>
    <v>       0.93070908       0.86955871       0.80038574 </v>
    <v>       0.56080657       0.14281556       0.19730024 </v>
    <v>       0.40895058       0.79095694       0.19760708 </v>
[...]
       <r>    4.6308    1.0000 </r>
       <r>    4.6827    1.0000 </r>
       <r>    4.7200    1.0000 </r>
       <r>    4.7479    1.0000 </r>
       <r>    4.7887    1.0000 </r>
       <r>    4.8462    1.0000 </r>
       <r>    4.8915    1.0000 </r>
       <r>    4.9477    1.0000 </r>
       <r>    4.9851    1.0000 </r>
       <r>    5.0594    1.0000 </r>
       <r>    5.1265    1.0000 </r>
       <r>    5.1588    1.0000 </r>
       <r>    5.2300    1.0000 </r>
       <r>    5.2936    1.0000 </r>
       <r>    5.3837    1.0000 </r>
       <r>    5.4180    1.0000 </r>
       <r>    5.4632    1.0000 </r>
       <r>    5.5278    1.0000 </r>
       <r>    5.6244    1.0000 </r>
       <r>    5.6688    1.0000 </r>
       <r>    5.6979    1.0000 </r>
       <r>    5.7591    1.0000 </r>
       <r>    5.7964    1.0000 </r>
       <r>    5.8470    1.0000 </r>
       <r>    5.9169    1.0000 </r>
       <r>    5.9886    1.0000 </r>
       <r>    6.0313    1.0000 </r>
       <r>    6.0618    1.0000 </r>
       <r>    6.1153    1.0002 </r>
       <r>    6.1520    1.0004 </r>
       <r>    6.2309    1.0026 </r>
       <r>    6.2470    1.0036 </r>
       <r>    6.2785    1.0063 </r>
       <r>    6.3233    1.0127 </r>
       <r>    6.4014    1.0296 </r>
       <r>    6.4708    1.0331 </r>
       <r>    6.4911    1.0259 </r>
       <r>    6.5183    1.0061 </r>
       <r>    6.6798    0.5539 </r>
       <r>    6.7099    0.4270 </r>
       <r>    6.7711    0.1944 </r>
       <r>    6.8187    0.0668 </r>
       <r>    6.9094   -0.0318 </r>
       <r>    7.0629   -0.0125 </r>
       <r>    7.1183   -0.0052 </r>
       <r>    7.2405   -0.0004 </r>
       <r>    7.2788   -0.0001 </r>
       <r>    7.4262   -0.0000 </r>
       <r>    7.6784   -0.0000 </r>
       <r>    7.7804   -0.0000 </r>
       <r>    7.8500   -0.0000 </r>
       <r>    8.0151   -0.0000 </r>
       <r>    8.0911   -0.0000 </r>
       <r>    8.1782   -0.0000 </r>
       <r>    8.5110   -0.0000 </r>
       <r>    8.6451   -0.0000 </r>
       <r>    8.7165   -0.0000 </r>
       <r>    8.8247   -0.0000 </r>
       <r>    8.8577   -0.0000 </r>
       <r>    8.9626   -0.0000 </r>
       <r>    9.0125   -0.0000 </r>
      </set>
     </set>
    </set>
   </array>
  </eigenvalues>
  <separator name="orbital magnetization" >
   <v name="MAGDIPOLOUT">      0.00000000      0.00000000      0.00000000</v>
  </separator>
  <dos>
   <i name="efermi">      6.69258719 </i>
   <total>
    <array>
     <dimension dim="1">gridpoints</dimension>
     <dimension dim="2">spin</dimension>
     <field>energy</field>
     <field>total</field>
     <field>integrated</field>
     <set>
      <set comment="spin 1">
       <r>   -50.2033     0.0000     0.0000 </r>
       <r>   -49.9958     0.0000     0.0000 </r>
       <r>   -49.7883     0.0000     0.0000 </r>
       <r>   -49.5808     0.0000     0.0000 </r>
       <r>   -49.3733     0.0000     0.0000 </r>
       <r>   -49.1658    -0.0000    -0.0000 </r>
       <r>   -48.9584    -0.0000    -0.0000 </r>
       <r>   -48.7509    -0.0000    -0.0000 </r>
       <r>   -48.5434    -0.0000    -0.0000 </r>
       <r>   -48.3359    -0.0000    -0.0000 </r>
       <r>   -48.1284    -0.0000    -0.0000 </r>
       <r>   -47.9210    -0.0046    -0.0010 </r>
       <r>   -47.7135    -0.3166    -0.0666 </r>
       <r>   -47.5060    -0.2607    -0.1207 </r>
       <r>   -47.2985    20.2902     4.0891 </r>
       <r>   -47.0910    32.9442    10.9244 </r>
       <r>   -46.8835     6.1539    12.2013 </r>
       <r>   -46.6761    -0.9196    12.0105 </r>
       <r>   -46.4686    -0.0502    12.0000 </r>
       <r>   -46.2611    -0.0002    12.0000 </r>
       <r>   -46.0536    -0.0000    12.0000 </r>
       <r>   -45.8461    -0.0000    12.0000 </r>
       <r>   -45.6386     0.0000    12.0000 </r>
       <r>   -45.4312     0.0000    12.0000 </r>
       <r>   -45.2237     0.0000    12.0000 </r>
       <r>   -45.0162     0.0000    12.0000 </r>
       <r>   -44.8087     0.0000    12.0000 </r>
       <r>   -44.6012     0.0000    12.0000 </r>
       <r>   -44.3938     0.0000    12.0000 </r>
       <r>   -44.1863     0.0000    12.0000 </r>
       <r>   -43.9788     0.0000    12.0000 </r>
       <r>   -43.7713     0.0000    12.0000 </r>
       <r>   -43.5638     0.0000    12.0000 </r>
       <r>   -43.3563     0.0000    12.0000 </r>
       <r>   -43.1489     0.0000    12.0000 </r>
       <r>   -42.9414     0.0000    12.0000 </r>
       <r>   -42.7339     0.0000    12.0000 </r>
       <r>   -42.5264     0.0000    12.0000 </r>
       <r>   -42.3189     0.0000    12.0000 </r>
       <r>   -42.1115     0.0000    12.0000 </r>
       <r>   -41.9040     0.0000    12.0000 </r>
       <r>   -41.6965     0.0000    12.0000 </r>
       <r>   -41.4890     0.0000    12.0000 </r>
       <r>   -41.2815     0.0000    12.0000 </r>
       <r>   -41.0740     0.0000    12.0000 </r>
       <r>   -40.8666     0.0000    12.0000 </r>
       <r>   -40.6591     0.0000    12.0000 </r>
       <r>   -40.4516     0.0000    12.0000 </r>
       <r>   -40.2441     0.0000    12.0000 </r>
       <r>   -40.0366     0.0000    12.0000 </r>
       <r>   -39.8292     0.0000    12.0000 </r>
       <r>   -39.6217     0.0000    12.0000 </r>
       <r>   -39.4142     0.0000    12.0000 </r>
       <r>   -39.2067     0.0000    12.0000 </r>
       <r>   -38.9992     0.0000    12.0000 </r>
       <r>   -38.7917     0.0000    12.0000 </r>
       <r>   -38.5843     0.0000    12.0000 </r>
       <r>   -38.3768     0.0000    12.0000 </r>
       <r>   -38.1693     0.0000    12.0000 </r>
       <r>   -37.9618     0.0000    12.0000 </r>
       <r>   -37.7543     0.0000    12.0000 </r>
       <r>   -37.5468     0.0000    12.0000 </r>
       <r>   -37.3394     0.0000    12.0000 </r>
       <r>   -37.1319     0.0000    12.0000 </r>
       <r>   -36.9244     0.0000    12.0000 </r>
       <r>   -36.7169     0.0000    12.0000 </r>
       <r>   -36.5094     0.0000    12.0000 </r>
       <r>   -36.3020     0.0000    12.0000 </r>
       <r>   -36.0945     0.0000    12.0000 </r>
       <r>   -35.8870     0.0000    12.0000 </r>
       <r>   -35.6795     0.0000    12.0000 </r>
       <r>   -35.4720     0.0000    12.0000 </r>
       <r>   -35.2645     0.0000    12.0000 </r>
       <r>   -35.0571     0.0000    12.0000 </r>
       <r>   -34.8496     0.0000    12.0000 </r>
       <r>   -34.6421     0.0000    12.0000 </r>
       <r>   -34.4346     0.0000    12.0000 </r>
       <r>   -34.2271     0.0000    12.0000 </r>
       <r>   -34.0197     0.0000    12.0000 </r>
       <r>   -33.8122     0.0000    12.0000 </r>
       <r>   -33.6047     0.0000    12.0000 </r>
       <r>   -33.3972     0.0000    12.0000 </r>
       <r>   -33.1897     0.0000    12.0000 </r>
       <r>   -32.9822     0.0000    12.0000 </r>
       <r>   -32.7748     0.0000    12.0000 </r>
       <r>   -32.5673     0.0000    12.0000 </r>
       <r>   -32.3598     0.0000    12.0000 </r>
       <r>   -32.1523     0.0000    12.0000 </r>
       <r>   -31.9448     0.0000    12.0000 </r>
       <r>   -31.7374     0.0000    12.0000 </r>
       <r>   -31.5299     0.0000    12.0000 </r>
       <r>   -31.3224     0.0000    12.0000 </r>
       <r>   -31.1149     0.0000    12.0000 </r>
       <r>   -30.9074     0.0000    12.0000 </r>
       <r>   -30.6999     0.0000    12.0000 </r>
       <r>   -30.4925     0.0000    12.0000 </r>
       <r>   -30.2850     0.0000    12.0000 </r>
       <r>   -30.0775     0.0000    12.0000 </r>
       <r>   -29.8700     0.0000    12.0000 </r>
       <r>   -29.6625     0.0000    12.0000 </r>
       <r>   -29.4550     0.0000    12.0000 </r>
       <r>   -29.2476     0.0000    12.0000 </r>
       <r>   -29.0401     0.0000    12.0000 </r>
       <r>   -28.8326     0.0000    12.0000 </r>
       <r>   -28.6251     0.0000    12.0000 </r>
       <r>   -28.4176     0.0000    12.0000 </r>
       <r>   -28.2102     0.0000    12.0000 </r>
       <r>   -28.0027     0.0000    12.0000 </r>
       <r>   -27.7952     0.0000    12.0000 </r>
       <r>   -27.5877     0.0000    12.0000 </r>
       <r>   -27.3802     0.0000    12.0000 </r>
       <r>   -27.1727     0.0000    12.0000 </r>
       <r>   -26.9653     0.0000    12.0000 </r>
       <r>   -26.7578     0.0000    12.0000 </r>
       <r>   -26.5503     0.0000    12.0000 </r>
       <r>   -26.3428     0.0000    12.0000 </r>
       <r>   -26.1353     0.0000    12.0000 </r>
       <r>   -25.9279     0.0000    12.0000 </r>
       <r>   -25.7204    -0.0000    12.0000 </r>
       <r>   -25.5129    -0.0000    12.0000 </r>
       <r>   -25.3054    -0.0000    12.0000 </r>
       <r>   -25.0979    -0.0000    12.0000 </r>
       <r>   -24.8904    -0.0000    12.0000 </r>
       <r>   -24.6830    -0.0000    12.0000 </r>
       <r>   -24.4755    -0.0109    11.9977 </r>
       <r>   -24.2680    -0.2677    11.9422 </r>
       <r>   -24.0605     1.0366    12.1573 </r>
       <r>   -23.8530    10.9140    14.4217 </r>
       <r>   -23.6456    20.7380    18.7245 </r>
       <r>   -23.4381    48.2724    28.7402 </r>
       <r>   -23.2306    57.0695    40.5811 </r>
       <r>   -23.0231    24.1484    45.5914 </r>
       <r>   -22.8156    10.7996    47.8321 </r>
       <r>   -22.6081     1.0354    48.0470 </r>
       <r>   -22.4007    -0.2078    48.0039 </r>
       <r>   -22.1932    -0.0184    48.0000 </r>
       <r>   -21.9857    -0.0001    48.0000 </r>
       <r>   -21.7782    -0.0000    48.0000 </r>
       <r>   -21.5707    -0.0000    48.0000 </r>
       <r>   -21.3632     0.0000    48.0000 </r>
       <r>   -21.1558     0.0000    48.0000 </r>
       <r>   -20.9483     0.0000    48.0000 </r>
       <r>   -20.7408     0.0000    48.0000 </r>
       <r>   -20.5333     0.0000    48.0000 </r>
       <r>   -20.3258     0.0000    48.0000 </r>
       <r>   -20.1184     0.0000    48.0000 </r>
       <r>   -19.9109     0.0000    48.0000 </r>
       <r>   -19.7034     0.0000    48.0000 </r>
       <r>   -19.4959     0.0000    48.0000 </r>
       <r>   -19.2884     0.0000    48.0000 </r>
       <r>   -19.0809     0.0000    48.0000 </r>
       <r>   -18.8735     0.0000    48.0000 </r>
       <r>   -18.6660     0.0000    48.0000 </r>
       <r>   -18.4585     0.0000    48.0000 </r>
       <r>   -18.2510     0.0000    48.0000 </r>
       <r>   -18.0435     0.0000    48.0000 </r>
       <r>   -17.8361     0.0000    48.0000 </r>
       <r>   -17.6286     0.0000    48.0000 </r>
       <r>   -17.4211     0.0000    48.0000 </r>
       <r>   -17.2136     0.0000    48.0000 </r>
       <r>   -17.0061     0.0000    48.0000 </r>
       <r>   -16.7986     0.0000    48.0000 </r>
       <r>   -16.5912     0.0000    48.0000 </r>
       <r>   -16.3837     0.0000    48.0000 </r>
       <r>   -16.1762     0.0000    48.0000 </r>
       <r>   -15.9687     0.0000    48.0000 </r>
       <r>   -15.7612     0.0000    48.0000 </r>
       <r>   -15.5538     0.0000    48.0000 </r>
       <r>   -15.3463     0.0000    48.0000 </r>
       <r>   -15.1388     0.0000    48.0000 </r>
       <r>   -14.9313     0.0000    48.0000 </r>
       <r>   -14.7238     0.0000    48.0000 </r>
       <r>   -14.5163     0.0000    48.0000 </r>
       <r>   -14.3089     0.0000    48.0000 </r>
       <r>   -14.1014     0.0000    48.0000 </r>
       <r>   -13.8939     0.0000    48.0000 </r>
       <r>   -13.6864     0.0000    48.0000 </r>
       <r>   -13.4789     0.0000    48.0000 </r>
       <r>   -13.2714     0.0000    48.0000 </r>
       <r>   -13.0640     0.0000    48.0000 </r>
       <r>   -12.8565     0.0000    48.0000 </r>
       <r>   -12.6490     0.0000    48.0000 </r>
       <r>   -12.4415     0.0000    48.0000 </r>
       <r>   -12.2340     0.0000    48.0000 </r>
       <r>   -12.0266     0.0000    48.0000 </r>
       <r>   -11.8191     0.0000    48.0000 </r>
       <r>   -11.6116     0.0000    48.0000 </r>
       <r>   -11.4041     0.0000    48.0000 </r>
       <r>   -11.1966     0.0000    48.0000 </r>
       <r>   -10.9891     0.0000    48.0000 </r>
       <r>   -10.7817     0.0000    48.0000 </r>
       <r>   -10.5742     0.0000    48.0000 </r>
       <r>   -10.3667     0.0000    48.0000 </r>
       <r>   -10.1592     0.0000    48.0000 </r>
       <r>    -9.9517     0.0000    48.0000 </r>
       <r>    -9.7443     0.0000    48.0000 </r>
       <r>    -9.5368     0.0000    48.0000 </r>
       <r>    -9.3293     0.0000    48.0000 </r>
       <r>    -9.1218     0.0000    48.0000 </r>
       <r>    -8.9143     0.0000    48.0000 </r>
       <r>    -8.7068     0.0000    48.0000 </r>
       <r>    -8.4994     0.0000    48.0000 </r>
       <r>    -8.2919     0.0000    48.0000 </r>
       <r>    -8.0844     0.0000    48.0000 </r>
       <r>    -7.8769     0.0000    48.0000 </r>
       <r>    -7.6694     0.0000    48.0000 </r>
       <r>    -7.4619     0.0000    48.0000 </r>
       <r>    -7.2545     0.0000    48.0000 </r>
       <r>    -7.0470     0.0000    48.0000 </r>
       <r>    -6.8395     0.0000    48.0000 </r>
       <r>    -6.6320     0.0000    48.0000 </r>
       <r>    -6.4245     0.0000    48.0000 </r>
       <r>    -6.2171     0.0000    48.0000 </r>
       <r>    -6.0096     0.0000    48.0000 </r>
       <r>    -5.8021     0.0000    48.0000 </r>
       <r>    -5.5946     0.0000    48.0000 </r>
       <r>    -5.3871     0.0000    48.0000 </r>
       <r>    -5.1796     0.0000    48.0000 </r>
       <r>    -4.9722     0.0000    48.0000 </r>
       <r>    -4.7647     0.0000    48.0000 </r>
       <r>    -4.5572     0.0000    48.0000 </r>
       <r>    -4.3497     0.0000    48.0000 </r>
       <r>    -4.1422     0.0000    48.0000 </r>
       <r>    -3.9348     0.0000    48.0000 </r>
       <r>    -3.7273     0.0000    48.0000 </r>
       <r>    -3.5198     0.0000    48.0000 </r>
       <r>    -3.3123     0.0000    48.0000 </r>
       <r>    -3.1048     0.0000    48.0000 </r>
       <r>    -2.8973     0.0000    48.0000 </r>
       <r>    -2.6899     0.0000    48.0000 </r>
       <r>    -2.4824     0.0000    48.0000 </r>
       <r>    -2.2749    -0.0000    48.0000 </r>
       <r>    -2.0674    -0.0000    48.0000 </r>
       <r>    -1.8599    -0.0000    48.0000 </r>
       <r>    -1.6525    -0.0000    48.0000 </r>
       <r>    -1.4450    -0.0000    48.0000 </r>
       <r>    -1.2375    -0.0000    48.0000 </r>
       <r>    -1.0300    -0.0004    47.9999 </r>
       <r>    -0.8225    -0.0098    47.9979 </r>
       <r>    -0.6150     0.0241    48.0029 </r>
       <r>    -0.4076     0.4510    48.0964 </r>
       <r>    -0.2001     1.1701    48.3392 </r>
       <r>     0.0074     1.6225    48.6759 </r>
       <r>     0.2149     1.5262    48.9925 </r>
       <r>     0.4224     0.9553    49.1907 </r>
       <r>     0.6299     3.3015    49.8757 </r>
       <r>     0.8373     3.2575    50.5516 </r>
       <r>     1.0448     2.4219    51.0541 </r>
       <r>     1.2523     2.8829    51.6523 </r>
       <r>     1.4598     4.1343    52.5100 </r>
       <r>     1.6673     3.7567    53.2895 </r>
       <r>     1.8747     5.2446    54.3776 </r>
       <r>     2.0822     7.3985    55.9127 </r>
       <r>     2.2897     9.3674    57.8563 </r>
       <r>     2.4972    14.9432    60.9567 </r>
       <r>     2.7047    18.6952    64.8356 </r>
       <r>     2.9122    21.1498    69.2238 </r>
       <r>     3.1196    25.8239    74.5818 </r>
       <r>     3.3271    29.9974    80.8058 </r>
       <r>     3.5346    30.3574    87.1044 </r>
       <r>     3.7421    32.1188    93.7685 </r>
       <r>     3.9496    31.2801   100.2585 </r>
       <r>     4.1570    28.2788   106.1259 </r>
       <r>     4.3645    23.4787   110.9973 </r>
       <r>     4.5720    25.0113   116.1867 </r>
       <r>     4.7795    36.6089   123.7824 </r>
       <r>     4.9870    41.6481   132.4236 </r>
       <r>     5.1945    40.9648   140.9231 </r>
       <r>     5.4019    37.5100   148.7057 </r>
       <r>     5.6094    37.9917   156.5883 </r>
       <r>     5.8169    36.6793   164.1986 </r>
       <r>     6.0244    37.6775   172.0160 </r>
       <r>     6.2319    40.8172   180.4848 </r>
       <r>     6.4393    40.3874   188.8645 </r>
       <r>     6.6468    36.5225   196.4423 </r>
       <r>     6.8543    31.7647   203.0329 </r>
       <r>     7.0618    23.9844   208.0092 </r>
       <r>     7.2693    19.4015   212.0347 </r>
       <r>     7.4768    17.4348   215.6521 </r>
       <r>     7.6842    15.7373   218.9173 </r>
       <r>     7.8917    16.2196   222.2826 </r>
       <r>     8.0992    18.3555   226.0910 </r>
       <r>     8.3067    20.4282   230.3295 </r>
       <r>     8.5142    19.7396   234.4251 </r>
       <r>     8.7217    14.8422   237.5046 </r>
       <r>     8.9291     8.2472   239.2158 </r>
       <r>     9.1366     3.3660   239.9141 </r>
       <r>     9.3441     0.4824   240.0142 </r>
       <r>     9.5516    -0.0600   240.0018 </r>
       <r>     9.7591    -0.0085   240.0000 </r>
       <r>     9.9665    -0.0001   240.0000 </r>
       <r>    10.1740    -0.0000   240.0000 </r>
       <r>    10.3815    -0.0000   240.0000 </r>
       <r>    10.5890    -0.0000   240.0000 </r>
       <r>    10.7965     0.0000   240.0000 </r>
       <r>    11.0040     0.0000   240.0000 </r>
       <r>    11.2114     0.0000   240.0000 </r>
       <r>    11.4189     0.0000   240.0000 </r>
       <r>    11.6264     0.0000   240.0000 </r>
       <r>    11.8339     0.0000   240.0000 </r>
       <r>    12.0414     0.0000   240.0000 </r>
      </set>
     </set>
    </array>
   </total>
  </dos>
 </calculation>
 <structure name="finalpos" >
  <crystal>
   <varray name="basis" >
    <v>      -3.22948429      -3.17286688      -3.20674800 </v>
    <v>       1.48807577       1.61843677      -7.92231040 </v>
    <v>       7.92325680      -7.92994272      -1.45504898 </v>
   </varray>
   <i name="volume">    481.74683209 </i>
   <varray name="rec_basis" >
    <v>      -0.13529590      -0.12580317      -0.05111325 </v>
    <v>       0.04320247       0.06249537      -0.10534385 </v>
    <v>       0.06295081      -0.06301414      -0.00104879 </v>
   </varray>
  </crystal>
  <varray name="positions" >
   <v>       0.95877775       0.92893064       0.39260365 </v>
   <v>       0.63388161       0.26291034       0.40350477 </v>
   <v>       0.50021492       0.00584674       0.00108615 </v>
   <v>      -0.00124128       0.00233620       0.00510051 </v>
   <v>       0.09956060       0.20549557       0.80063063 </v>
   <v>       0.03855169       0.06461568       0.59665313 </v>
   <v>       0.90388891       0.79319979       0.20141272 </v>
   <v>       0.80312054       0.59093837       0.39450091 </v>
   <v>       0.73421935       0.46714704       0.19939593 </v>
   <v>       0.67299688       0.34082336      -0.00125301 </v>
   <v>       0.36907875       0.72454020       0.59862089 </v>
   <v>       0.13073100       0.27340759       0.39928351 </v>
   <v>       0.83558705       0.66825888       0.00262598 </v>
   <v>       0.93331363       0.87026238       0.80009048 </v>
   <v>       0.54366777       0.15719154       0.19829444 </v>
   <v>       0.40765843       0.79337344       0.19679177 </v>
   <v>       0.44092502       0.85769841       0.79552782 </v>
   <v>       0.30007621       0.59630908       0.39546063 </v>
   <v>       0.86133780       0.73139676       0.59418309 </v>
   <v>       0.46274881       0.92791707       0.40381856 </v>
   <v>       0.17761808       0.34575801       0.01444905 </v>
   <v>       0.27333253       0.53166433       0.80008775 </v>
   <v>       0.19832291       0.39179757       0.59482620 </v>
   <v>       0.05166816       0.14179603       0.20750721 </v>
   <v>       0.77289867       0.52690137       0.80025311 </v>
   <v>       0.69085042       0.40767433       0.60210202 </v>
   <v>       0.59793614       0.20155309       0.79839571 </v>
   <v>       0.53595444       0.06653743       0.60212120 </v>
   <v>       0.33898988       0.65705210       0.00192520 </v>
  </varray>
 </structure>
</modeling>
