SQS with 1 vacancy for VFE and VRV      
           1
    -3.190000   -3.190000   -3.190000
     1.595000    1.595000   -7.975000
     7.975000   -7.975000   -1.595000
   Nb   Mo   Ta   Ti   W 
   6   6   6   6   5
Direct configuration=     1
   0.96666667  0.93333333  0.40000000
   0.63333333  0.26666667  0.40000000
   0.50000000  0.00000000  0.00000000
   0.00000000  0.00000000  0.00000000
   0.10000000  0.20000000  0.80000000
   0.03333333  0.06666667  0.60000000
   0.90000000  0.80000000  0.20000000
   0.80000000  0.60000000  0.40000000
   0.73333333  0.46666667  0.20000000
   0.66666667  0.33333333  0.00000000
   0.36666667  0.73333333  0.60000000
   0.13333333  0.26666667  0.40000000
   0.83333333  0.66666667  0.00000000
   0.93333333  0.86666667  0.80000000
   0.56666667  0.13333333  0.20000000
   0.40000000  0.80000000  0.20000000
   0.43333333  0.86666667  0.80000000
   0.30000000  0.60000000  0.40000000
   0.86666667  0.73333333  0.60000000
   0.46666667  0.93333333  0.40000000
   0.16666667  0.33333333  0.00000000
   0.26666667  0.53333333  0.80000000
   0.20000000  0.40000000  0.60000000
   0.06666667  0.13333333  0.20000000
   0.76666667  0.53333333  0.80000000
   0.70000000  0.40000000  0.60000000
   0.60000000  0.20000000  0.80000000
   0.53333333  0.06666667  0.60000000
   0.33333333  0.66666667  0.00000000
SQS with 1 vacancy for VFE and VRV      
           1
    -3.172170   -3.152324   -3.165851
     1.531758    1.583619   -7.867756
     7.880409   -7.890092   -1.523626
   Nb   Mo   Ta   Ti   W 
   6   6   6   6   5
Direct configuration=     2
   0.96436237  0.93302491  0.39727038
   0.63392598  0.26611347  0.40059634
   0.49976799  0.00237947  0.00030772
  -0.00140248  0.00058618  0.00182621
   0.09749827  0.20449983  0.79901613
   0.03547628  0.06727147  0.59856673
   0.90033310  0.79826150  0.20227397
   0.80242088  0.59538445  0.39832757
   0.73288583  0.46748131  0.19949332
   0.66662154  0.33792948 -0.00073400
   0.36851910  0.73019794  0.60068899
   0.13175573  0.27109979  0.39903059
   0.83287113  0.66426870  0.00240166
   0.93151221  0.86815835  0.79994394
   0.56563923  0.13697437  0.19853245
   0.40535242  0.79494876  0.19839644
   0.43749472  0.86088624  0.79695775
   0.29992666  0.60036094  0.40026544
   0.86456223  0.73284109  0.59879161
   0.46597155  0.93203315  0.40248307
   0.16789531  0.33544559  0.00169304
   0.26867727  0.53398136  0.79998684
   0.20076614  0.39695108  0.59850351
   0.06253511  0.13562702  0.20257776
   0.76800232  0.52894442  0.80030511
   0.69555886  0.40607638  0.60160611
   0.59672337  0.20208219  0.79846085
   0.53533689  0.06846319  0.60125061
   0.33567664  0.66106071  0.00117987
SQS with 1 vacancy for VFE and VRV      
           1
    -3.175645   -3.159666   -3.170556
     1.544081    1.585837   -7.888654
     7.898842   -7.906637   -1.537535
   Nb   Mo   Ta   Ti   W 
   6   6   6   6   5
Direct configuration=     3
   0.96481575  0.93308896  0.39780912
   0.63380885  0.26622221  0.40047902
   0.49981558  0.00190853  0.00024558
  -0.00112689  0.00046788  0.00146625
   0.09799416  0.20361089  0.79920774
   0.03505611  0.06715387  0.59884829
   0.90026544  0.79860256  0.20182684
   0.80194157  0.59629949  0.39865959
   0.73297464  0.46732078  0.19959276
   0.66663467  0.33702148 -0.00059231
   0.36815210  0.73081734  0.60055477
   0.13206995  0.27022414  0.39921916
   0.83295914  0.66473992  0.00192999
   0.93187142  0.86786323  0.79995447
   0.56584479  0.13625602  0.19881958
   0.40429660  0.79595021  0.19871444
   0.43667275  0.86203351  0.79756007
   0.29994131  0.60028923  0.40021291
   0.86497572  0.73293966  0.59903061
   0.46610627  0.93228716  0.40199470
   0.16765521  0.33502597  0.00135769
   0.26828272  0.53385346  0.79998852
   0.20061334  0.39755592  0.59880024
   0.06334829  0.13516983  0.20206924
   0.76773589  0.52981211  0.80024749
   0.69643650  0.40487230  0.60128672
   0.59736958  0.20167193  0.79876366
   0.53494436  0.06810664  0.60100247
   0.33521085  0.66216812  0.00095039
SQS with 1 vacancy for VFE and VRV      
           1
    -3.204230   -3.170872   -3.193585
     1.513207    1.597620   -7.907245
     7.926237   -7.939871   -1.499753
   Nb   Mo   Ta   Ti   W 
   6   6   6   6   5
Direct configuration=     4
   0.96273350  0.93276001  0.39547879
   0.63411719  0.26573871  0.40084964
   0.49945065  0.00367951  0.00032727
  -0.00192509  0.00105431  0.00290466
   0.09628875  0.20676008  0.79848609
   0.03681777  0.06773357  0.59768730
   0.90125981  0.79655375  0.20371489
   0.80412230  0.59277087  0.39720748
   0.73290114  0.46756544  0.19929868
   0.66653970  0.34045098 -0.00106035
   0.36963337  0.72816969  0.60093736
   0.13104317  0.27397546  0.39834482
   0.83317220  0.66324641  0.00385196
   0.93084844  0.86898285  0.80005537
   0.56353817  0.14015095  0.19770138
   0.40815233  0.79205594  0.19768663
   0.43942078  0.85786905  0.79539039
   0.29991703  0.60015481  0.40023710
   0.86340270  0.73252346  0.59779236
   0.46561434  0.93109401  0.40398133
   0.16908630  0.33698176  0.00326981
   0.26967022  0.53420855  0.79993406
   0.20090685  0.39521362  0.59739736
   0.05995460  0.13745713  0.20425114
   0.76925226  0.52655680  0.80047067
   0.69285127  0.40961682  0.60230808
   0.59479983  0.20324636  0.79766524
   0.53638957  0.06954014  0.60182911
   0.33670750  0.65722225  0.00200139
SQS with 1 vacancy for VFE and VRV      
           1
    -3.214855   -3.175037   -3.202145
     1.501732    1.601999   -7.914155
     7.936419   -7.952223   -1.485710
   Nb   Mo   Ta   Ti   W 
   6   6   6   6   5
Direct configuration=     5
   0.96196376  0.93263406  0.39461478
   0.63423192  0.26555988  0.40098651
   0.49931353  0.00433705  0.00035912
  -0.00221984  0.00127474  0.00343751
   0.09565431  0.20792795  0.79822134
   0.03746685  0.06794629  0.59725871
   0.90163084  0.79579656  0.20441233
   0.80493157  0.59145814  0.39666718
   0.73287350  0.46765573  0.19919001
   0.66649970  0.34172304 -0.00123028
   0.37018417  0.72718740  0.60107699
   0.13065842  0.27536641  0.39802440
   0.83325398  0.66269553  0.00456220
   0.93046922  0.86939879  0.80009344
   0.56268050  0.14159500  0.19729030
   0.40958085  0.79060795  0.19730374
   0.44044001  0.85631891  0.79458399
   0.29990827  0.60010497  0.40024591
   0.86282173  0.73236702  0.59733283
   0.46543542  0.93065487  0.40471553
   0.16961313  0.33771089  0.00398032
   0.27018206  0.53433999  0.79991481
   0.20101766  0.39434164  0.59687571
   0.05869952  0.13831069  0.20505993
   0.76981676  0.52534867  0.80055068
   0.69152146  0.41138033  0.60268953
   0.59384816  0.20382920  0.79725907
   0.53692173  0.07007345  0.60213719
   0.33726749  0.65538817  0.00238622
SQS with 1 vacancy for VFE and VRV      
           1
    -3.221935   -3.178384   -3.206842
     1.501982    1.605673   -7.924663
     7.943898   -7.955019   -1.483389
   Nb   Mo   Ta   Ti   W 
   6   6   6   6   5
Direct configuration=     6
   0.96173603  0.93223527  0.39447859
   0.63411095  0.26547777  0.40111133
   0.49944267  0.00388392  0.00006480
  -0.00186837  0.00111168  0.00349560
   0.09627149  0.20684092  0.79839006
   0.03757625  0.06806281  0.59720454
   0.90222255  0.79517231  0.20431830
   0.80493565  0.59187622  0.39651242
   0.73312459  0.46705061  0.19940943
   0.66691806  0.34086645 -0.00129322
   0.36978439  0.72722952  0.60062988
   0.13104830  0.27533052  0.39817766
   0.83368705  0.66404100  0.00431747
   0.93070908  0.86955871  0.80038574
   0.56080657  0.14281556  0.19730024
   0.40895058  0.79095694  0.19760708
   0.43981601  0.85701203  0.79513052
   0.30018473  0.59979061  0.40002716
   0.86270800  0.73261316  0.59697824
   0.46545621  0.93047950  0.40471199
   0.17061445  0.33814434  0.00475658
   0.26991392  0.53408792  0.79997807
   0.20050645  0.39428151  0.59639281
   0.05824519  0.13893467  0.20532733
   0.77023429  0.52629535  0.80065184
   0.69151652  0.41066235  0.60227729
   0.59444092  0.20332086  0.79739565
   0.53687346  0.06983449  0.60197322
   0.33670068  0.65536633  0.00228938
SQS with 1 vacancy for VFE and VRV      
           1
    -3.231882   -3.183086   -3.213441
     1.502333    1.610833   -7.939424
     7.954405   -7.958947   -1.480129
   Nb   Mo   Ta   Ti   W 
   6   6   6   6   5
Direct configuration=     7
   0.96141649  0.93167576  0.39428720
   0.63394143  0.26536260  0.40128652
   0.49962349  0.00324818 -0.00034848
  -0.00137534  0.00088295  0.00357721
   0.09713737  0.20531595  0.79862680
   0.03772961  0.06822626  0.59712854
   0.90305239  0.79429655  0.20418630
   0.80494117  0.59246275  0.39629527
   0.73347702  0.46620172  0.19971737
   0.66750481  0.33966473 -0.00138168
   0.36922320  0.72728852  0.60000207
   0.13159530  0.27528021  0.39839294
   0.83429410  0.66592856  0.00397441
   0.93104580  0.86978310  0.80079624
   0.55817825  0.14452786  0.19731394
   0.40806691  0.79144658  0.19803285
   0.43894137  0.85798448  0.79589779
   0.30057225  0.59934956  0.39972006
   0.86254809  0.73295842  0.59648046
   0.46548539  0.93023347  0.40470697
   0.17201967  0.33875256  0.00584682
   0.26953792  0.53373428  0.80006672
   0.19978892  0.39419707  0.59571468
   0.05760825  0.13981007  0.20570275
   0.77081995  0.52762349  0.80079426
   0.69150919  0.40965502  0.60169834
   0.59527247  0.20260774  0.79758745
   0.53680558  0.06949923  0.60174294
   0.33590560  0.65533566  0.00215323
SQS with 1 vacancy for VFE and VRV      
           1
    -3.229022   -3.181734   -3.211544
     1.502232    1.609349   -7.935179
     7.951384   -7.957818   -1.481066
   Nb   Mo   Ta   Ti   W 
   6   6   6   6   5
Direct configuration=     8
   0.96150821  0.93183635  0.39434226
   0.63399001  0.26539565  0.40123622
   0.49957174  0.00343065 -0.00022972
  -0.00151681  0.00094858  0.00355374
   0.09688886  0.20575360  0.79855883
   0.03768564  0.06817935  0.59715035
   0.90281435  0.79454789  0.20422422
   0.80493967  0.59229442  0.39635760
   0.73337580  0.46644534  0.19962894
   0.66733648  0.34000962 -0.00135622
   0.36938440  0.72727162  0.60018247
   0.13143830  0.27529464  0.39833105
   0.83412008  0.66538685  0.00407275
   0.93094907  0.86971868  0.80067826
   0.55893231  0.14403646  0.19731011
   0.40832030  0.79130604  0.19791058
   0.43919207  0.85770537  0.79567737
   0.30046117  0.59947615  0.39980828
   0.86259413  0.73285935  0.59662345
   0.46547702  0.93030408  0.40470843
   0.17161620  0.33857795  0.00553344
   0.26964575  0.53383577  0.80004132
   0.19999498  0.39422134  0.59590957
   0.05779088  0.13955883  0.20559489
   0.77065191  0.52724231  0.80075318
   0.69151146  0.40994415  0.60186475
   0.59503384  0.20281239  0.79753233
   0.53682512  0.06959545  0.60180913
   0.33613374  0.65534447  0.00219242
SQS with 1 vacancy for VFE and VRV      
           1
    -3.228018   -3.177794   -3.208641
     1.498498    1.608867   -7.926217
     7.940351   -7.943686   -1.475358
   Nb   Mo   Ta   Ti   W 
   6   6   6   6   5
Direct configuration=     9
   0.96128817  0.93150425  0.39417510
   0.63394582  0.26527875  0.40137128
   0.49971778  0.00313299 -0.00033725
  -0.00128468  0.00081269  0.00370545
   0.09725883  0.20514202  0.79870075
   0.03780545  0.06816132  0.59707940
   0.90319945  0.79406551  0.20410714
   0.80490415  0.59252607  0.39619515
   0.73350556  0.46606038  0.19975979
   0.66786895  0.33948699 -0.00145196
   0.36916016  0.72722027  0.59987926
   0.13170506  0.27531247  0.39847205
   0.83423639  0.66628164  0.00393838
   0.93111232  0.86993646  0.80082377
   0.55718713  0.14522926  0.19727707
   0.40802221  0.79146679  0.19806698
   0.43881291  0.85810259  0.79600477
   0.30071339  0.59921287  0.39956884
   0.86239622  0.73305164  0.59632034
   0.46545269  0.93012956  0.40471050
   0.17252133  0.33906746  0.00629472
   0.26962306  0.53361133  0.80005652
   0.19956261  0.39406063  0.59548166
   0.05722527  0.14012096  0.20588938
   0.77094576  0.52775230  0.80079585
   0.69146850  0.40950193  0.60163548
   0.59553079  0.20242671  0.79759339
   0.53679772  0.06938019  0.60173051
   0.33598368  0.65529732  0.00215567
SQS with 1 vacancy for VFE and VRV      
           1
    -3.226724   -3.172714   -3.204897
     1.493682    1.608244   -7.914662
     7.926126   -7.925465   -1.467997
   Nb   Mo   Ta   Ti   W 
   6   6   6   6   5
Direct configuration=    10
   0.96100415  0.93107553  0.39395907
   0.63388891  0.26512788  0.40154566
   0.49990619  0.00274874 -0.00047617
  -0.00098500  0.00063730  0.00390138
   0.09773642  0.20435260  0.79888395
   0.03796000  0.06813802  0.59698780
   0.90369637  0.79344280  0.20395592
   0.80485817  0.59282506  0.39598541
   0.73367315  0.46556350  0.19992870
   0.66855604  0.33881235 -0.00157561
   0.36887058  0.72715390  0.59948760
   0.13204937  0.27533552  0.39865422
   0.83438625  0.66743664  0.00376512
   0.93132305  0.87021762  0.80101179
   0.55493496  0.14676895  0.19723432
   0.40763766  0.79167431  0.19826893
   0.43832383  0.85861542  0.79642761
   0.30103871  0.59887295  0.39925960
   0.86214059  0.73329978  0.59592890
   0.46542133  0.92990429  0.40471313
   0.17368981  0.33969955  0.00727822
   0.26959382  0.53332162  0.80007609
   0.19900438  0.39385305  0.59492890
   0.05649557  0.14084665  0.20626971
   0.77132490  0.52841063  0.80085116
   0.69141296  0.40893105  0.60133926
   0.59617215  0.20192889  0.79767226
   0.53676234  0.06910230  0.60162891
   0.33579003  0.65523643  0.00210816
SQS with 1 vacancy for VFE and VRV      
           1
    -3.227893   -3.172795   -3.205412
     1.492159    1.608602   -7.914166
     7.925242   -7.924176   -1.465927
   Nb   Mo   Ta   Ti   W 
   6   6   6   6   5
Direct configuration=    11
   0.96085745  0.93097816  0.39381888
   0.63395956  0.26498774  0.40162378
   0.49995152  0.00283807 -0.00024615
  -0.00094212  0.00063266  0.00417266
   0.09773755  0.20454701  0.79898615
   0.03805664  0.06787621  0.59690446
   0.90380884  0.79319206  0.20379246
   0.80475423  0.59280079  0.39584807
   0.73369483  0.46550378  0.19989845
   0.66915925  0.33883799 -0.00165107
   0.36887523  0.72704602  0.59945474
   0.13210540  0.27537147  0.39867124
   0.83424051  0.66732995  0.00379709
   0.93145307  0.87031090  0.80089683
   0.55360859  0.14772917  0.19717804
   0.40772900  0.79164815  0.19819488
   0.43839250  0.85854797  0.79640613
   0.30118238  0.59870235  0.39895801
   0.86195623  0.73331804  0.59575812
   0.46529347  0.92975427  0.40467078
   0.17423692  0.34022815  0.00794677
   0.26988971  0.53315625  0.80000803
   0.19871553  0.39367621  0.59471104
   0.05592438  0.14120747  0.20650840
   0.77141727  0.52824734  0.80080421
   0.69134949  0.40891884  0.60137968
   0.59636142  0.20185887  0.79767581
   0.53672170  0.06893360  0.60162504
   0.33617611  0.65515385  0.00220747
SQS with 1 vacancy for VFE and VRV      
           1
    -3.231402   -3.173037   -3.206955
     1.487587    1.609673   -7.912679
     7.922592   -7.920310   -1.459714
   Nb   Mo   Ta   Ti   W 
   6   6   6   6   5
Direct configuration=    12
   0.96041743  0.93068597  0.39339818
   0.63417155  0.26456730  0.40185815
   0.50008756  0.00310619  0.00044407
  -0.00081337  0.00061887  0.00498662
   0.09774088  0.20513035  0.79929285
   0.03834660  0.06709065  0.59665434
   0.90414621  0.79243966  0.20330195
   0.80444241  0.59272790  0.39543596
   0.73375989  0.46532461  0.19980768
   0.67096848  0.33891488 -0.00187735
   0.36888921  0.72672234  0.59935611
   0.13227345  0.27547934  0.39872235
   0.83380344  0.66700985  0.00389298
   0.93184295  0.87059071  0.80055197
   0.54962981  0.15061010  0.19700924
   0.40800295  0.79156960  0.19797271
   0.43859849  0.85834559  0.79634165
   0.30161326  0.59819034  0.39805310
   0.86140318  0.73337274  0.59524567
   0.46490999  0.92930412  0.40454361
   0.17587803  0.34181447  0.00995298
   0.27077727  0.53266007  0.79980380
   0.19784914  0.39314550  0.59405727
   0.05421112  0.14229015  0.20722459
   0.77169439  0.52775741  0.80066330
   0.69115915  0.40888224  0.60150091
   0.59692914  0.20164881  0.79768647
   0.53659986  0.06842743  0.60161338
   0.33733420  0.65490614  0.00250547
SQS with 1 vacancy for VFE and VRV      
           1
    -3.238419   -3.173521   -3.210041
     1.478445    1.611817   -7.909705
     7.917292   -7.912577   -1.447290
   Nb   Mo   Ta   Ti   W 
   6   6   6   6   5
Direct configuration=    13
   0.95953775  0.93010096  0.39255604
   0.63459584  0.26372643  0.40232686
   0.50035989  0.00364333  0.00182533
  -0.00055529  0.00059214  0.00661525
   0.09774734  0.20629769  0.79990692
   0.03892658  0.06551884  0.59615345
   0.90482073  0.79093393  0.20232012
   0.80381883  0.59258165  0.39461121
   0.73389000  0.46496606  0.19962596
   0.67458457  0.33906848 -0.00232932
   0.36891734  0.72607469  0.59915855
   0.13260931  0.27569519  0.39882474
   0.83293015  0.66636958  0.00408442
   0.93262174  0.87115012  0.79986232
   0.54167441  0.15637340  0.19667193
   0.40855039  0.79141223  0.19752825
   0.43901033  0.85794064  0.79621259
   0.30247411  0.59716507  0.39624232
   0.86029723  0.73348163  0.59422015
   0.46414373  0.92840345  0.40428870
   0.17915882  0.34499014  0.01396889
   0.27255156  0.53166721  0.79939520
   0.19611723  0.39208309  0.59274844
   0.05078635  0.14445688  0.20865764
   0.77224859  0.52677710  0.80038112
   0.69077883  0.40880914  0.60174338
   0.59806410  0.20122859  0.79770787
   0.53635673  0.06741480  0.60158963
   0.33964951  0.65441089  0.00310202
SQS with 1 vacancy for VFE and VRV      
           1
    -3.234633   -3.173260   -3.208376
     1.483377    1.610660   -7.911309
     7.920151   -7.916749   -1.453993
   Nb   Mo   Ta   Ti   W 
   6   6   6   6   5
Direct configuration=    14
   0.96001193  0.93041724  0.39301117
   0.63436661  0.26418007  0.40207401
   0.50021271  0.00335259  0.00107925
  -0.00069515  0.00060564  0.00573582
   0.09774407  0.20566720  0.79957490
   0.03861359  0.06636760  0.59642439
   0.90445706  0.79174730  0.20285069
   0.80415519  0.59266107  0.39505673
   0.73381982  0.46515971  0.19972419
   0.67263624  0.33898581 -0.00208614
   0.36890199  0.72642441  0.59926547
   0.13242837  0.27557861  0.39876930
   0.83340037  0.66671510  0.00398149
   0.93220265  0.87084853  0.80023431
   0.54596404  0.15326254  0.19685359
   0.40825553  0.79149743  0.19776818
   0.43878828  0.85815931  0.79628234
   0.30201064  0.59771955  0.39722026
   0.86089373  0.73342344  0.59477408
   0.46455637  0.92888979  0.40442686
   0.17739036  0.34327357  0.01179855
   0.27159520  0.53220339  0.79961582
   0.19705067  0.39265734  0.59345593
   0.05263212  0.14328645  0.20788378
   0.77194965  0.52730644  0.80053374
   0.69098363  0.40884846  0.60161257
   0.59745231  0.20145541  0.79769623
   0.53648731  0.06796145  0.60160290
   0.33840135  0.65467788  0.00277959
SQS with 1 vacancy for VFE and VRV      
           1
    -3.236311   -3.177360   -3.211511
     1.487606    1.612667   -7.922454
     7.929799   -7.929039   -1.458961
   Nb   Mo   Ta   Ti   W 
   6   6   6   6   5
Direct configuration=    15
   0.95998099  0.93028018  0.39290698
   0.63448945  0.26401903  0.40219357
   0.50025729  0.00376994  0.00118489
  -0.00085190  0.00059310  0.00578532
   0.09825595  0.20579531  0.79971301
   0.03858511  0.06610272  0.59639835
   0.90437245  0.79185351  0.20266873
   0.80405537  0.59242068  0.39495647
   0.73377748  0.46554826  0.19967883
   0.67276907  0.33918399 -0.00196422
   0.36897802  0.72620280  0.59923834
   0.13203639  0.27532749  0.39873134
   0.83403975  0.66663786  0.00374677
   0.93212319  0.87058453  0.80036351
   0.54566392  0.15392925  0.19706443
   0.40833107  0.79167042  0.19768214
   0.43925915  0.85798140  0.79616686
   0.30162908  0.59770117  0.39698938
   0.86089764  0.73314873  0.59473633
   0.46432796  0.92881642  0.40422332
   0.17751622  0.34373042  0.01225506
   0.27200651  0.53208006  0.79960383
   0.19745554  0.39259468  0.59361526
   0.05226114  0.14311483  0.20786251
   0.77191153  0.52717323  0.80040362
   0.69066338  0.40887707  0.60165988
   0.59733657  0.20150976  0.79779248
   0.53630018  0.06784597  0.60165406
   0.33823816  0.65484053  0.00268894
SQS with 1 vacancy for VFE and VRV      
           1
    -3.236114   -3.176878   -3.211143
     1.487110    1.612431   -7.921145
     7.928667   -7.927597   -1.458377
   Nb   Mo   Ta   Ti   W 
   6   6   6   6   5
Direct configuration=    16
   0.95998462  0.93029624  0.39291919
   0.63447506  0.26403791  0.40217955
   0.50025205  0.00372102  0.00117251
  -0.00083351  0.00059457  0.00577952
   0.09819593  0.20578029  0.79969683
   0.03858846  0.06613377  0.59640140
   0.90438236  0.79184106  0.20269006
   0.80406708  0.59244886  0.39496822
   0.73378243  0.46550272  0.19968416
   0.67275349  0.33916076 -0.00197850
   0.36896911  0.72622877  0.59924151
   0.13208237  0.27535692  0.39873578
   0.83396475  0.66664691  0.00377430
   0.93213252  0.87061548  0.80034836
   0.54569911  0.15385111  0.19703972
   0.40832220  0.79165014  0.19769223
   0.43920393  0.85800225  0.79618041
   0.30167381  0.59770332  0.39701643
   0.86089719  0.73318093  0.59474075
   0.46435474  0.92882501  0.40424717
   0.17750147  0.34367688  0.01220156
   0.27195827  0.53209452  0.79960524
   0.19740807  0.39260203  0.59359659
   0.05230465  0.14313495  0.20786499
   0.77191600  0.52718884  0.80041887
   0.69070094  0.40887372  0.60165433
   0.59735015  0.20150339  0.79778120
   0.53632214  0.06785951  0.60164806
   0.33825729  0.65482146  0.00269957
SQS with 1 vacancy for VFE and VRV      
           1
    -3.233500   -3.176591   -3.209937
     1.489155    1.612125   -7.921281
     7.927464   -7.928753   -1.461217
   Nb   Mo   Ta   Ti   W 
   6   6   6   6   5
Direct configuration=    17
   0.95995906  0.93016287  0.39284993
   0.63453880  0.26392473  0.40230695
   0.50028250  0.00406678  0.00120542
  -0.00097218  0.00060575  0.00575652
   0.09861307  0.20582955  0.79981172
   0.03853914  0.06594822  0.59641108
   0.90427127  0.79199334  0.20254785
   0.80397739  0.59221952  0.39489329
   0.73375145  0.46586980  0.19964240
   0.67274881  0.33936923 -0.00186524
   0.36902787  0.72602428  0.59920982
   0.13171959  0.27511743  0.39871512
   0.83449034  0.66662893  0.00354752
   0.93207440  0.87041004  0.80045636
   0.54561656  0.15432937  0.19724777
   0.40835669  0.79181990  0.19758595
   0.43959736  0.85782500  0.79607460
   0.30134072  0.59768521  0.39688559
   0.86092911  0.73293663  0.59472585
   0.46415648  0.92877290  0.40408730
   0.17754775  0.34401236  0.01252073
   0.27227945  0.53200736  0.79962325
   0.19779496  0.39256116  0.59377204
   0.05206614  0.14292251  0.20779871
   0.77189414  0.52709146  0.80032149
   0.69047407  0.40887842  0.60169942
   0.59728427  0.20154193  0.79786479
   0.53617161  0.06777779  0.60171554
   0.33813587  0.65500086  0.00258822
SQS with 1 vacancy for VFE and VRV      
           1
    -3.226139   -3.175782   -3.206538
     1.494915    1.611261   -7.921665
     7.924077   -7.932010   -1.469216
   Nb   Mo   Ta   Ti   W 
   6   6   6   6   5
Direct configuration=    18
   0.95988703  0.92978728  0.39265492
   0.63471820  0.26360590  0.40266580
   0.50036848  0.00504059  0.00129797
  -0.00136291  0.00063726  0.00569179
   0.09978846  0.20596821  0.80013515
   0.03840002  0.06542564  0.59643847
   0.90395851  0.79242231  0.20214725
   0.80372462  0.59157364  0.39468238
   0.73366442  0.46690372  0.19952464
   0.67273559  0.33995634 -0.00154629
   0.36919338  0.72544833  0.59912061
   0.13069713  0.27444291  0.39865718
   0.83597171  0.66657839  0.00290855
   0.93191032  0.86983138  0.80076067
   0.54538397  0.15567628  0.19783362
   0.40845416  0.79229807  0.19728650
   0.44070607  0.85732583  0.79577648
   0.30040222  0.59763426  0.39651717
   0.86101891  0.73224859  0.59468397
   0.46359795  0.92862619  0.40363708
   0.17767796  0.34495707  0.01341959
   0.27318444  0.53176186  0.79967388
   0.19888495  0.39244596  0.59426609
   0.05139395  0.14232422  0.20761221
   0.77183260  0.52681722  0.80004726
   0.68983469  0.40889162  0.60182653
   0.59709855  0.20165043  0.79810026
   0.53574729  0.06754762  0.60190571
   0.33779397  0.65550619  0.00227455
SQS with 1 vacancy for VFE and VRV      
           1
    -3.224538   -3.173687   -3.204880
     1.494421    1.611601   -7.919206
     7.921190   -7.928538   -1.467764
   Nb   Mo   Ta   Ti   W 
   6   6   6   6   5
Direct configuration=    19
   0.95973055  0.92961751  0.39267938
   0.63446342  0.26357416  0.40285727
   0.50029728  0.00515008  0.00126088
  -0.00131382  0.00089046  0.00559434
   0.09975705  0.20582672  0.80025022
   0.03835483  0.06529373  0.59654767
   0.90395691  0.79254687  0.20199632
   0.80360418  0.59144568  0.39462791
   0.73373441  0.46712482  0.19946484
   0.67270476  0.34016054 -0.00148867
   0.36910637  0.72534270  0.59901233
   0.13065952  0.27419891  0.39869597
   0.83572776  0.66683608  0.00280454
   0.93230296  0.86981441  0.80066570
   0.54507234  0.15602758  0.19800327
   0.40834425  0.79252325  0.19710698
   0.44051702  0.85739247  0.79571599
   0.30023915  0.59746246  0.39638716
   0.86113573  0.73206533  0.59461363
   0.46343958  0.92855410  0.40358019
   0.17775115  0.34510295  0.01367905
   0.27316954  0.53173856  0.79973944
   0.19887418  0.39238053  0.59442012
   0.05141464  0.14214173  0.20750092
   0.77212475  0.52676775  0.80007641
   0.69015442  0.40862774  0.60184741
   0.59742839  0.20159071  0.79821150
   0.53573492  0.06738285  0.60196217
   0.33818041  0.65575263  0.00218708
SQS with 1 vacancy for VFE and VRV      
           1
    -3.223045   -3.171732   -3.203333
     1.493960    1.611918   -7.916912
     7.918497   -7.925298   -1.466409
   Nb   Mo   Ta   Ti   W 
   6   6   6   6   5
Direct configuration=    20
   0.95958444  0.92945907  0.39270219
   0.63422557  0.26354454  0.40303598
   0.50023082  0.00525227  0.00122627
  -0.00126798  0.00112677  0.00550340
   0.09972772  0.20569467  0.80035762
   0.03831264  0.06517063  0.59664960
   0.90395541  0.79266312  0.20185544
   0.80349172  0.59132626  0.39457706
   0.73379977  0.46733118  0.19940904
   0.67267601  0.34035112 -0.00143487
   0.36902511  0.72524411  0.59891124
   0.13062439  0.27397118  0.39873215
   0.83550001  0.66707659  0.00270745
   0.93266952  0.86979856  0.80057705
   0.54478145  0.15635547  0.19816163
   0.40824164  0.79273340  0.19693942
   0.44034053  0.85745467  0.79565952
   0.30008688  0.59730211  0.39626578
   0.86124477  0.73189429  0.59454798
   0.46329172  0.92848682  0.40352707
   0.17781951  0.34523912  0.01392126
   0.27315563  0.53171682  0.79980064
   0.19886413  0.39231948  0.59456391
   0.05143393  0.14197140  0.20739702
   0.77239751  0.52672157  0.80010361
   0.69045289  0.40838145  0.60186690
   0.59773634  0.20153497  0.79831534
   0.53572336  0.06722907  0.60201486
   0.33854121  0.65598261  0.00210545
SQS with 1 vacancy for VFE and VRV      
           1
    -3.224594   -3.172050   -3.204401
     1.493891    1.613666   -7.920331
     7.921614   -7.927271   -1.465037
   Nb   Mo   Ta   Ti   W 
   6   6   6   6   5
Direct configuration=    21
   0.95941097  0.92933611  0.39273034
   0.63398390  0.26350746  0.40318820
   0.50015728  0.00531270  0.00118155
  -0.00120072  0.00139567  0.00541070
   0.09963475  0.20554976  0.80044867
   0.03828940  0.06506877  0.59673044
   0.90399545  0.79274606  0.20173691
   0.80339993  0.59126023  0.39454755
   0.73389721  0.46739758  0.19937034
   0.67268975  0.34046852 -0.00139869
   0.36893978  0.72517177  0.59881713
   0.13068421  0.27379743  0.39878381
   0.83525887  0.66734887  0.00264501
   0.93301364  0.86983666  0.80045911
   0.54444367  0.15660164  0.19826893
   0.40808935  0.79293300  0.19683464
   0.44018669  0.85757903  0.79563047
   0.30001613  0.59713105  0.39614166
   0.86134427  0.73176445  0.59447545
   0.46317172  0.92841193  0.40352525
   0.17785729  0.34530745  0.01409393
   0.27308505  0.53170166  0.79985646
   0.19874225  0.39224869  0.59467154
   0.05152567  0.14185788  0.20732417
   0.77265639  0.52672287  0.80015259
   0.69079028  0.40812263  0.60188294
   0.59799448  0.20148514  0.79839512
   0.53574907  0.06708189  0.60204687
   0.33885996  0.65618640  0.00204892
SQS with 1 vacancy for VFE and VRV      
           1
    -3.225926   -3.172323   -3.205319
     1.493831    1.615169   -7.923271
     7.924295   -7.928968   -1.463857
   Nb   Mo   Ta   Ti   W 
   6   6   6   6   5
Direct configuration=    22
   0.95926180  0.92923041  0.39275452
   0.63377612  0.26347561  0.40331906
   0.50009404  0.00536464  0.00114310
  -0.00114290  0.00162684  0.00533103
   0.09955482  0.20542518  0.80052694
   0.03826942  0.06498120  0.59679993
   0.90402986  0.79281735  0.20163500
   0.80332099  0.59120346  0.39452215
   0.73398099  0.46745467  0.19933708
   0.67270158  0.34056946 -0.00136757
   0.36886638  0.72510957  0.59873619
   0.13073565  0.27364806  0.39882822
   0.83505151  0.66758296  0.00259133
   0.93330952  0.86986939  0.80035773
   0.54415325  0.15681330  0.19836120
   0.40795839  0.79310460  0.19674455
   0.44005440  0.85768595  0.79560548
   0.29995526  0.59698397  0.39603492
   0.86142982  0.73165282  0.59441309
   0.46306853  0.92834755  0.40352367
   0.17788982  0.34536621  0.01424242
   0.27302437  0.53168863  0.79990445
   0.19863747  0.39218785  0.59476408
   0.05160453  0.14176028  0.20726152
   0.77287901  0.52672400  0.80019471
   0.69108038  0.40790010  0.60189673
   0.59821646  0.20144230  0.79846374
   0.53577117  0.06695536  0.60207437
   0.33913404  0.65636160  0.00200036
SQS with 1 vacancy for VFE and VRV      
           1
    -3.226403   -3.172038   -3.205362
     1.492764    1.615641   -7.922691
     7.923706   -7.928197   -1.462164
   Nb   Mo   Ta   Ti   W 
   6   6   6   6   5
Direct configuration=    23
   0.95915748  0.92918903  0.39274503
   0.63375017  0.26340444  0.40336487
   0.50009298  0.00542077  0.00111901
  -0.00114678  0.00174792  0.00529177