  29  29   0   0
  0.1679057E+02  0.5525242E-09  0.8287863E-09  0.1139058E-08  0.5000000E-15
  1.000000000000000E-004
  CAR 
 SQS with 1 vacancy for VFE and VRV      
     12.05215536    -50.36412133  301      6.74655878      1.00000000
    -50.364  0.0000E+00  0.0000E+00
    -50.156  0.0000E+00  0.0000E+00
    -49.948  0.0000E+00  0.0000E+00
    -49.740  0.0000E+00  0.0000E+00
    -49.532  0.0000E+00  0.0000E+00
    -49.324 -0.3626E-35 -0.7545E-36
    -49.116 -0.1453E-27 -0.3023E-28
    -48.908 -0.6571E-21 -0.1367E-21
    -48.700 -0.3230E-15 -0.6720E-16
    -48.492 -0.1807E-10 -0.3760E-11
    -48.284 -0.1093E-06 -0.2273E-07
    -48.076 -0.6845E-04 -0.1426E-04
    -47.867 -0.3836E-02 -0.8124E-03
    -47.659  0.1789E-02 -0.4403E-03
    -47.451  0.1950E+00  0.4013E-01
    -47.243  0.5326E+00  0.1509E+00
    -47.035  0.3884E+00  0.2317E+00
    -46.827  0.4914E-01  0.2420E+00
    -46.619 -0.8929E-02  0.2401E+00
    -46.411 -0.5260E-03  0.2400E+00
    -46.203 -0.2307E-05  0.2400E+00
    -45.995 -0.1006E-08  0.2400E+00
    -45.787 -0.4682E-13  0.2400E+00
    -45.579  0.0000E+00  0.2400E+00
    -45.371  0.0000E+00  0.2400E+00
    -45.163  0.0000E+00  0.2400E+00
    -44.955  0.0000E+00  0.2400E+00
    -44.747  0.0000E+00  0.2400E+00
    -44.539  0.0000E+00  0.2400E+00
    -44.331  0.0000E+00  0.2400E+00
    -44.122  0.0000E+00  0.2400E+00
    -43.914  0.0000E+00  0.2400E+00
    -43.706  0.0000E+00  0.2400E+00
    -43.498  0.0000E+00  0.2400E+00
    -43.290  0.0000E+00  0.2400E+00
    -43.082  0.0000E+00  0.2400E+00
    -42.874  0.0000E+00  0.2400E+00
    -42.666  0.0000E+00  0.2400E+00
    -42.458  0.0000E+00  0.2400E+00
    -42.250  0.0000E+00  0.2400E+00
    -42.042  0.0000E+00  0.2400E+00
    -41.834  0.0000E+00  0.2400E+00
    -41.626  0.0000E+00  0.2400E+00
    -41.418  0.0000E+00  0.2400E+00
    -41.210  0.0000E+00  0.2400E+00
    -41.002  0.0000E+00  0.2400E+00
    -40.794  0.0000E+00  0.2400E+00
    -40.586  0.0000E+00  0.2400E+00
    -40.378  0.0000E+00  0.2400E+00
    -40.169  0.0000E+00  0.2400E+00
    -39.961  0.0000E+00  0.2400E+00
    -39.753  0.0000E+00  0.2400E+00
    -39.545  0.0000E+00  0.2400E+00
    -39.337  0.0000E+00  0.2400E+00
    -39.129  0.0000E+00  0.2400E+00
    -38.921  0.0000E+00  0.2400E+00
    -38.713  0.0000E+00  0.2400E+00
    -38.505  0.0000E+00  0.2400E+00
    -38.297  0.0000E+00  0.2400E+00
    -38.089  0.0000E+00  0.2400E+00
    -37.881  0.0000E+00  0.2400E+00
    -37.673  0.0000E+00  0.2400E+00
    -37.465  0.0000E+00  0.2400E+00
    -37.257  0.0000E+00  0.2400E+00
    -37.049  0.0000E+00  0.2400E+00
    -36.841  0.0000E+00  0.2400E+00
    -36.633  0.0000E+00  0.2400E+00
    -36.424  0.0000E+00  0.2400E+00
    -36.216  0.0000E+00  0.2400E+00
    -36.008  0.0000E+00  0.2400E+00
    -35.800  0.0000E+00  0.2400E+00
    -35.592  0.0000E+00  0.2400E+00
    -35.384  0.0000E+00  0.2400E+00
    -35.176  0.0000E+00  0.2400E+00
    -34.968  0.0000E+00  0.2400E+00
    -34.760  0.0000E+00  0.2400E+00
    -34.552  0.0000E+00  0.2400E+00
    -34.344  0.0000E+00  0.2400E+00
    -34.136  0.0000E+00  0.2400E+00
    -33.928  0.0000E+00  0.2400E+00
    -33.720  0.0000E+00  0.2400E+00
    -33.512  0.0000E+00  0.2400E+00
    -33.304  0.0000E+00  0.2400E+00
    -33.096  0.0000E+00  0.2400E+00
    -32.888  0.0000E+00  0.2400E+00
    -32.680  0.0000E+00  0.2400E+00
    -32.471  0.0000E+00  0.2400E+00
    -32.263  0.0000E+00  0.2400E+00
    -32.055  0.0000E+00  0.2400E+00
    -31.847  0.0000E+00  0.2400E+00
    -31.639  0.0000E+00  0.2400E+00
    -31.431  0.0000E+00  0.2400E+00
    -31.223  0.0000E+00  0.2400E+00
    -31.015  0.0000E+00  0.2400E+00
    -30.807  0.0000E+00  0.2400E+00
    -30.599  0.0000E+00  0.2400E+00
    -30.391  0.0000E+00  0.2400E+00
    -30.183  0.0000E+00  0.2400E+00
    -29.975  0.0000E+00  0.2400E+00
    -29.767  0.0000E+00  0.2400E+00
    -29.559  0.0000E+00  0.2400E+00
    -29.351  0.0000E+00  0.2400E+00
    -29.143  0.0000E+00  0.2400E+00
    -28.935  0.0000E+00  0.2400E+00
    -28.726  0.0000E+00  0.2400E+00
    -28.518  0.0000E+00  0.2400E+00
    -28.310  0.0000E+00  0.2400E+00
    -28.102  0.0000E+00  0.2400E+00
    -27.894  0.0000E+00  0.2400E+00
    -27.686  0.0000E+00  0.2400E+00
    -27.478  0.0000E+00  0.2400E+00
    -27.270  0.0000E+00  0.2400E+00
    -27.062  0.0000E+00  0.2400E+00
    -26.854  0.0000E+00  0.2400E+00
    -26.646  0.0000E+00  0.2400E+00
    -26.438  0.0000E+00  0.2400E+00
    -26.230  0.0000E+00  0.2400E+00
    -26.022  0.0000E+00  0.2400E+00
    -25.814 -0.5926E-30  0.2400E+00
    -25.606 -0.4469E-23  0.2400E+00
    -25.398 -0.3795E-17  0.2400E+00
    -25.190 -0.3472E-12  0.2400E+00
    -24.982 -0.3601E-08  0.2400E+00
    -24.773 -0.4048E-05  0.2400E+00
    -24.565 -0.4683E-03  0.2399E+00
    -24.357 -0.3598E-02  0.2392E+00
    -24.149  0.2949E-01  0.2453E+00
    -23.941  0.1819E+00  0.2831E+00
    -23.733  0.4524E+00  0.3772E+00
    -23.525  0.7148E+00  0.5260E+00
    -23.317  0.1099E+01  0.7546E+00
    -23.109  0.5509E+00  0.8692E+00
    -22.901  0.3482E+00  0.9417E+00
    -22.693  0.9940E-01  0.9623E+00
    -22.485 -0.1017E-01  0.9602E+00
    -22.277 -0.1045E-02  0.9600E+00
    -22.069 -0.1020E-04  0.9600E+00
    -21.861 -0.1203E-07  0.9600E+00
    -21.653 -0.1603E-11  0.9600E+00
    -21.445 -0.2561E-16  0.9600E+00
    -21.237  0.0000E+00  0.9600E+00
    -21.028  0.0000E+00  0.9600E+00
    -20.820  0.0000E+00  0.9600E+00
    -20.612  0.0000E+00  0.9600E+00
    -20.404  0.0000E+00  0.9600E+00
    -20.196  0.0000E+00  0.9600E+00
    -19.988  0.0000E+00  0.9600E+00
    -19.780  0.0000E+00  0.9600E+00
    -19.572  0.0000E+00  0.9600E+00
    -19.364  0.0000E+00  0.9600E+00
    -19.156  0.0000E+00  0.9600E+00
    -18.948  0.0000E+00  0.9600E+00
    -18.740  0.0000E+00  0.9600E+00
    -18.532  0.0000E+00  0.9600E+00
    -18.324  0.0000E+00  0.9600E+00
    -18.116  0.0000E+00  0.9600E+00
    -17.908  0.0000E+00  0.9600E+00
    -17.700  0.0000E+00  0.9600E+00
    -17.492  0.0000E+00  0.9600E+00
    -17.283  0.0000E+00  0.9600E+00
    -17.075  0.0000E+00  0.9600E+00
    -16.867  0.0000E+00  0.9600E+00
    -16.659  0.0000E+00  0.9600E+00
    -16.451  0.0000E+00  0.9600E+00
    -16.243  0.0000E+00  0.9600E+00
    -16.035  0.0000E+00  0.9600E+00
    -15.827  0.0000E+00  0.9600E+00
    -15.619  0.0000E+00  0.9600E+00
    -15.411  0.0000E+00  0.9600E+00
    -15.203  0.0000E+00  0.9600E+00
    -14.995  0.0000E+00  0.9600E+00
    -14.787  0.0000E+00  0.9600E+00
    -14.579  0.0000E+00  0.9600E+00
    -14.371  0.0000E+00  0.9600E+00
    -14.163  0.0000E+00  0.9600E+00
    -13.955  0.0000E+00  0.9600E+00
    -13.747  0.0000E+00  0.9600E+00
    -13.539  0.0000E+00  0.9600E+00
    -13.330  0.0000E+00  0.9600E+00
    -13.122  0.0000E+00  0.9600E+00
    -12.914  0.0000E+00  0.9600E+00
    -12.706  0.0000E+00  0.9600E+00
    -12.498  0.0000E+00  0.9600E+00
    -12.290  0.0000E+00  0.9600E+00
    -12.082  0.0000E+00  0.9600E+00
    -11.874  0.0000E+00  0.9600E+00
    -11.666  0.0000E+00  0.9600E+00
    -11.458  0.0000E+00  0.9600E+00
    -11.250  0.0000E+00  0.9600E+00
    -11.042  0.0000E+00  0.9600E+00
    -10.834  0.0000E+00  0.9600E+00
    -10.626  0.0000E+00  0.9600E+00
    -10.418  0.0000E+00  0.9600E+00
    -10.210  0.0000E+00  0.9600E+00
    -10.002  0.0000E+00  0.9600E+00
     -9.794  0.0000E+00  0.9600E+00
     -9.585  0.0000E+00  0.9600E+00
     -9.377  0.0000E+00  0.9600E+00
     -9.169  0.0000E+00  0.9600E+00
     -8.961  0.0000E+00  0.9600E+00
     -8.753  0.0000E+00  0.9600E+00
     -8.545  0.0000E+00  0.9600E+00
     -8.337  0.0000E+00  0.9600E+00
     -8.129  0.0000E+00  0.9600E+00
     -7.921  0.0000E+00  0.9600E+00
     -7.713  0.0000E+00  0.9600E+00
     -7.505  0.0000E+00  0.9600E+00
     -7.297  0.0000E+00  0.9600E+00
     -7.089  0.0000E+00  0.9600E+00
     -6.881  0.0000E+00  0.9600E+00
     -6.673  0.0000E+00  0.9600E+00
     -6.465  0.0000E+00  0.9600E+00
     -6.257  0.0000E+00  0.9600E+00
     -6.049  0.0000E+00  0.9600E+00
     -5.841  0.0000E+00  0.9600E+00
     -5.632  0.0000E+00  0.9600E+00
     -5.424  0.0000E+00  0.9600E+00
     -5.216  0.0000E+00  0.9600E+00
     -5.008  0.0000E+00  0.9600E+00
     -4.800  0.0000E+00  0.9600E+00
     -4.592  0.0000E+00  0.9600E+00
     -4.384  0.0000E+00  0.9600E+00
     -4.176  0.0000E+00  0.9600E+00
     -3.968  0.0000E+00  0.9600E+00
     -3.760  0.0000E+00  0.9600E+00
     -3.552  0.0000E+00  0.9600E+00
     -3.344  0.0000E+00  0.9600E+00
     -3.136  0.0000E+00  0.9600E+00
     -2.928  0.0000E+00  0.9600E+00
     -2.720  0.0000E+00  0.9600E+00
     -2.512  0.0000E+00  0.9600E+00
     -2.304 -0.6608E-35  0.9600E+00
     -2.096 -0.1398E-27  0.9600E+00
     -1.887 -0.3358E-21  0.9600E+00
     -1.679 -0.8865E-16  0.9600E+00
     -1.471 -0.2705E-11  0.9600E+00
     -1.263 -0.9306E-08  0.9600E+00
     -1.055 -0.3568E-05  0.9600E+00
     -0.847 -0.1392E-03  0.9600E+00
     -0.639  0.1149E-03  0.9600E+00
     -0.431  0.6724E-02  0.9614E+00
     -0.223  0.2003E-01  0.9656E+00
     -0.015  0.3662E-01  0.9732E+00
      0.193  0.3739E-01  0.9810E+00
      0.401  0.2789E-01  0.9868E+00
      0.609  0.3939E-01  0.9950E+00
      0.817  0.6120E-01  0.1008E+01
      1.025  0.6545E-01  0.1021E+01
      1.233  0.5680E-01  0.1033E+01
      1.441  0.7251E-01  0.1048E+01
      1.649  0.8962E-01  0.1067E+01
      1.857  0.1074E+00  0.1089E+01
      2.066  0.1419E+00  0.1119E+01
      2.274  0.1918E+00  0.1159E+01
      2.482  0.2967E+00  0.1220E+01
      2.690  0.3738E+00  0.1298E+01
      2.898  0.4296E+00  0.1388E+01
      3.106  0.4992E+00  0.1491E+01
      3.314  0.5596E+00  0.1608E+01
      3.522  0.5707E+00  0.1727E+01
      3.730  0.6015E+00  0.1852E+01
      3.938  0.6185E+00  0.1980E+01
      4.146  0.6119E+00  0.2108E+01
      4.354  0.5220E+00  0.2216E+01
      4.562  0.5421E+00  0.2329E+01
      4.770  0.7035E+00  0.2475E+01
      4.978  0.7772E+00  0.2637E+01
      5.186  0.7971E+00  0.2803E+01
      5.394  0.7601E+00  0.2961E+01
      5.602  0.7417E+00  0.3115E+01
      5.811  0.7335E+00  0.3268E+01
      6.019  0.7604E+00  0.3426E+01
      6.227  0.7628E+00  0.3585E+01
      6.435  0.7709E+00  0.3745E+01
      6.643  0.7075E+00  0.3892E+01
      6.851  0.6342E+00  0.4024E+01
      7.059  0.5378E+00  0.4136E+01
      7.267  0.4326E+00  0.4226E+01
      7.475  0.3456E+00  0.4298E+01
      7.683  0.3036E+00  0.4361E+01
      7.891  0.3215E+00  0.4428E+01
      8.099  0.3953E+00  0.4511E+01
      8.307  0.4403E+00  0.4602E+01
      8.515  0.4048E+00  0.4686E+01
      8.723  0.2926E+00  0.4747E+01
      8.931  0.1670E+00  0.4782E+01
      9.139  0.7655E-01  0.4798E+01
      9.347  0.1174E-01  0.4800E+01
      9.556 -0.1495E-02  0.4800E+01
      9.764 -0.1808E-03  0.4800E+01
      9.972 -0.1941E-05  0.4800E+01
     10.180 -0.2446E-08  0.4800E+01
     10.388 -0.3623E-12  0.4800E+01
     10.596 -0.6147E-17  0.4800E+01
     10.804  0.0000E+00  0.4800E+01
     11.012  0.0000E+00  0.4800E+01
     11.220  0.0000E+00  0.4800E+01
     11.428  0.0000E+00  0.4800E+01
     11.636  0.0000E+00  0.4800E+01
     11.844  0.0000E+00  0.4800E+01
     12.052  0.0000E+00  0.4800E+01
