   29   29   50    1
  0.1679057E+02  0.5525242E-09  0.8287863E-09  0.1139058E-08  0.5000000E-15
  1.000000000000000E-004
  CAR 
 SQS with 1 vacancy for VFE and VRV      
    198     63    120
 
  0.0000000E+00  0.0000000E+00  0.0000000E+00  0.8000000E-02
    1      -47.527018   1.000000
    2      -47.409349   1.000000
    3      -47.302129   1.000000
    4      -47.240777   1.000000
    5      -47.232329   1.000000
    6      -47.080150   1.000000
    7      -24.174461   1.000000
    8      -23.916880   1.000000
    9      -23.842996   1.000000
   10      -23.756254   1.000000
   11      -23.697792   1.000000
   12      -23.558539   1.000000
   13      -23.516681   1.000000
   14      -23.507607   1.000000
   15      -23.466010   1.000000
   16      -23.443140   1.000000
   17      -23.407126   1.000000
   18      -23.378974   1.000000
   19      -23.333631   1.000000
   20      -23.260408   1.000000
   21      -23.235706   1.000000
   22      -23.037771   1.000000
   23      -22.962345   1.000000
   24      -22.844529   1.000000
   25       -0.566557   1.000000
   26        0.852555   1.000000
   27        1.005344   1.000000
   28        1.985185   1.000000
   29        2.062407   1.000000
   30        2.112513   1.000000
   31        2.242898   1.000000
   32        2.425921   1.000000
   33        2.472975   1.000000
   34        2.558455   1.000000
   35        2.632845   1.000000
   36        2.689635   1.000000
   37        2.808661   1.000000
   38        2.880449   1.000000
   39        2.906827   1.000000
   40        3.024410   1.000000
   41        3.072809   1.000000
   42        3.176233   1.000000
   43        3.304381   1.000000
   44        3.407668   1.000000
   45        3.455315   1.000000
   46        3.506379   1.000000
   47        3.545146   1.000000
   48        3.592724   1.000000
   49        3.643582   1.000000
   50        3.687416   1.000000
   51        3.769293   1.000000
   52        3.842186   1.000000
   53        3.940878   1.000000
   54        3.970150   1.000000
   55        4.093690   1.000000
   56        4.193172   1.000000
   57        4.252387   1.000000
   58        4.371508   1.000000
   59        4.434566   1.000000
   60        4.536238   1.000000
   61        4.618204   1.000000
   62        4.644155   1.000000
   63        4.707203   1.000000
   64        4.741383   1.000000
   65        4.821165   1.000000
   66        4.824091   1.000000
   67        4.900010   1.000000
   68        4.928583   1.000000
   69        4.955455   1.000000
   70        4.982835   1.000000
   71        5.081367   1.000000
   72        5.120748   1.000000
   73        5.136301   1.000000
   74        5.306622   1.000000
   75        5.367854   1.000000
   76        5.406667   1.000000
   77        5.481340   1.000000
   78        5.551746   1.000000
   79        5.610165   1.000000
   80        5.683315   1.000000
   81        5.741713   1.000000
   82        5.921744   1.000000
   83        5.957763   1.000000
   84        5.975018   1.000000
   85        6.032646   1.000003
   86        6.093215   1.000019
   87        6.203303   1.000418
   88        6.229440   1.000783
   89        6.270983   1.001964
   90        6.359454   1.009791
   91        6.426568   1.023068
   92        6.455160   1.029519
   93        6.587366   0.989008
   94        6.651415   0.856471
   95        6.685139   0.746800
   96        6.748287   0.492688
   97        6.856224   0.104524
   98        6.911642   0.003733
   99        7.006493  -0.034678
  100        7.141804  -0.008626
  101        7.192632  -0.003544
  102        7.261667  -0.000821
  103        7.302212  -0.000306
  104        7.383091  -0.000032
  105        7.471786  -0.000002
  106        7.683340  -0.000000
  107        7.745393  -0.000000
  108        7.807067  -0.000000
  109        8.102359  -0.000000
  110        8.312456  -0.000000
  111        8.414846  -0.000000
  112        8.577173  -0.000000
  113        8.594306  -0.000000
  114        8.772725  -0.000000
  115        8.781246  -0.000000
  116        8.851623  -0.000000
  117        8.944640  -0.000000
  118        9.032364  -0.000000
  119        9.108496  -0.000000
  120        9.139873  -0.000000
 
  0.2000000E+00 -0.1387779E-16  0.0000000E+00  0.1600000E-01
    1      -47.525569   1.000000
    2      -47.397530   1.000000
    3      -47.301329   1.000000
    4      -47.248506   1.000000
    5      -47.237982   1.000000
    6      -47.080089   1.000000
    7      -24.075310   1.000000
    8      -23.907258   1.000000
    9      -23.837021   1.000000
   10      -23.753466   1.000000
   11      -23.696618   1.000000
   12      -23.547362   1.000000
   13      -23.517819   1.000000
   14      -23.508743   1.000000
   15      -23.473199   1.000000
   16      -23.448732   1.000000
   17      -23.413177   1.000000
   18      -23.392719   1.000000
   19      -23.335426   1.000000
   20      -23.263731   1.000000
   21      -23.237525   1.000000
   22      -23.041577   1.000000
   23      -22.972867   1.000000
   24      -22.962918   1.000000
   25       -0.238082   1.000000
   26        1.126148   1.000000
   27        1.292509   1.000000
   28        2.101004   1.000000
   29        2.213600   1.000000
   30        2.343519   1.000000
   31        2.518186   1.000000
   32        2.541696   1.000000
   33        2.622366   1.000000
   34        2.741183   1.000000
   35        2.816909   1.000000
   36        2.896235   1.000000
   37        3.004217   1.000000
   38        3.047572   1.000000
   39        3.102666   1.000000
   40        3.147079   1.000000
   41        3.215959   1.000000
   42        3.322293   1.000000
   43        3.360206   1.000000
   44        3.381828   1.000000
   45        3.510215   1.000000
   46        3.664141   1.000000
   47        3.694046   1.000000
   48        3.793278   1.000000
   49        3.801207   1.000000
   50        3.869105   1.000000
   51        3.888992   1.000000
   52        3.932365   1.000000
   53        4.025156   1.000000
   54        4.168092   1.000000
   55        4.180816   1.000000
   56        4.279324   1.000000
   57        4.352961   1.000000
   58        4.414395   1.000000
   59        4.445782   1.000000
   60        4.590151   1.000000
   61        4.652114   1.000000
   62        4.724631   1.000000
   63        4.763839   1.000000
   64        4.816481   1.000000
   65        4.876473   1.000000
   66        4.922904   1.000000
   67        4.977452   1.000000
   68        5.066535   1.000000
   69        5.092548   1.000000
   70        5.128953   1.000000
   71        5.206739   1.000000
   72        5.238501   1.000000
   73        5.299814   1.000000
   74        5.309550   1.000000
   75        5.371234   1.000000
   76        5.434621   1.000000
   77        5.476345   1.000000
   78        5.529177   1.000000
   79        5.614278   1.000000
   80        5.693774   1.000000
   81        5.747400   1.000000
   82        5.799676   1.000000
   83        5.882028   1.000000
   84        5.919988   1.000000
   85        5.991128   1.000001
   86        6.130038   1.000058
   87        6.154687   1.000117
   88        6.186311   1.000272
   89        6.206717   1.000454
   90        6.301036   1.003582
   91        6.335410   1.006649
   92        6.356762   1.009394
   93        6.397405   1.016600
   94        6.465325   1.031544
   95        6.560146   1.016565
   96        6.613181   0.947778
   97        6.686075   0.743413
   98        6.757230   0.454915
   99        6.800573   0.280426
  100        6.883623   0.045356
  101        6.945477  -0.024557
  102        7.018423  -0.033150
  103        7.072434  -0.021713
  104        7.127343  -0.010769
  105        7.189180  -0.003784
  106        7.433076  -0.000007
  107        7.534628  -0.000000
  108        7.587069  -0.000000
  109        7.809612  -0.000000
  110        7.873909  -0.000000
  111        7.972014  -0.000000
  112        8.002488  -0.000000
  113        8.120585  -0.000000
  114        8.230066  -0.000000
  115        8.301892  -0.000000
  116        8.437473  -0.000000
  117        8.501559  -0.000000
  118        8.540510  -0.000000
  119        8.660362  -0.000000
  120        8.715153  -0.000000
 
  0.4000000E+00 -0.2775558E-16  0.0000000E+00  0.1600000E-01
    1      -47.523493   1.000000
    2      -47.370778   1.000000
    3      -47.300082   1.000000
    4      -47.277393   1.000000
    5      -47.238060   1.000000
    6      -47.079990   1.000000
    7      -23.947923   1.000000
    8      -23.855927   1.000000
    9      -23.760721   1.000000
   10      -23.726286   1.000000
   11      -23.679312   1.000000
   12      -23.533963   1.000000
   13      -23.522368   1.000000
   14      -23.499973   1.000000
   15      -23.484991   1.000000
   16      -23.462622   1.000000
   17      -23.425881   1.000000
   18      -23.419980   1.000000
   19      -23.337933   1.000000
   20      -23.297848   1.000000
   21      -23.268803   1.000000
   22      -23.213291   1.000000
   23      -23.045431   1.000000
   24      -22.974188   1.000000
   25        0.626322   1.000000
   26        1.582765   1.000000
   27        1.959936   1.000000
   28        2.094500   1.000000
   29        2.375544   1.000000
   30        2.561348   1.000000
   31        2.657696   1.000000
   32        2.850469   1.000000
   33        2.979057   1.000000
   34        3.083890   1.000000
   35        3.102971   1.000000
   36        3.193689   1.000000
   37        3.265741   1.000000
   38        3.341827   1.000000
   39        3.391771   1.000000
   40        3.480437   1.000000
   41        3.523187   1.000000
   42        3.554843   1.000000
   43        3.611778   1.000000
   44        3.675325   1.000000
   45        3.769644   1.000000
   46        3.827088   1.000000
   47        3.879557   1.000000
   48        3.921737   1.000000
   49        4.027694   1.000000
   50        4.151084   1.000000
   51        4.202900   1.000000
   52        4.233232   1.000000
   53        4.288701   1.000000
   54        4.332267   1.000000
   55        4.406216   1.000000
   56        4.443458   1.000000
   57        4.538643   1.000000
   58        4.602036   1.000000
   59        4.612103   1.000000
   60        4.641164   1.000000
   61        4.698079   1.000000
   62        4.751554   1.000000
   63        4.826707   1.000000
   64        4.875501   1.000000
   65        4.940195   1.000000
   66        4.987562   1.000000
   67        5.048121   1.000000
   68        5.092119   1.000000
   69        5.163032   1.000000
   70        5.238471   1.000000
   71        5.290290   1.000000
   72        5.310420   1.000000
   73        5.375498   1.000000
   74        5.416055   1.000000
   75        5.454533   1.000000
   76        5.508745   1.000000
   77        5.542530   1.000000
   78        5.574548   1.000000
   79        5.618566   1.000000
   80        5.702332   1.000000
   81        5.719530   1.000000
   82        5.799452   1.000000
   83        5.876022   1.000000
   84        5.897261   1.000000
   85        5.930112   1.000000
   86        5.966318   1.000000
   87        6.039778   1.000003
   88        6.075531   1.000011
   89        6.148770   1.000099
   90        6.169753   1.000176
   91        6.228892   1.000773
   92        6.267676   1.001832
   93        6.343040   1.007550
   94        6.400677   1.017285
   95        6.432269   1.024387
   96        6.466761   1.031809
   97        6.544483   1.026171
   98        6.569581   1.008692
   99        6.635546   0.898829
  100        6.692471   0.719847
  101        6.732200   0.560582
  102        6.773780   0.385992
  103        6.870527   0.071281
  104        6.900578   0.018004
  105        6.981687  -0.035061
  106        7.042126  -0.028628
  107        7.110388  -0.013706
  108        7.203704  -0.002857
  109        7.277109  -0.000570
  110        7.431756  -0.000007
  111        7.479135  -0.000001
  112        7.578679  -0.000000
  113        7.641735  -0.000000
  114        7.680518  -0.000000
  115        7.841059  -0.000000
  116        7.927756  -0.000000
  117        8.032740  -0.000000
  118        8.160368  -0.000000
  119        8.196202  -0.000000
  120        8.322955  -0.000000
 
  0.0000000E+00  0.2000000E+00  0.1387779E-16  0.1600000E-01
    1      -47.527007   1.000000
    2      -47.409345   1.000000
    3      -47.301914   1.000000
    4      -47.240803   1.000000
    5      -47.232330   1.000000
    6      -47.080340   1.000000
    7      -24.174478   1.000000
    8      -23.916367   1.000000
    9      -23.842524   1.000000
   10      -23.752194   1.000000
   11      -23.697375   1.000000
   12      -23.558645   1.000000
   13      -23.516677   1.000000
   14      -23.507693   1.000000
   15      -23.466141   1.000000
   16      -23.443210   1.000000
   17      -23.407084   1.000000
   18      -23.379096   1.000000
   19      -23.333539   1.000000
   20      -23.260279   1.000000
   21      -23.235729   1.000000
   22      -23.039966   1.000000
   23      -22.966965   1.000000
   24      -22.844538   1.000000
   25       -0.435413   1.000000
   26        0.891160   1.000000
   27        1.127154   1.000000
   28        1.629217   1.000000
   29        1.938404   1.000000
   30        2.183901   1.000000
   31        2.344128   1.000000
   32        2.409428   1.000000
   33        2.514122   1.000000
   34        2.585553   1.000000
   35        2.645228   1.000000
   36        2.676499   1.000000
   37        2.792303   1.000000
   38        2.828920   1.000000
   39        2.861541   1.000000
   40        2.980844   1.000000
   41        3.051794   1.000000
   42        3.159859   1.000000
   43        3.246954   1.000000
   44        3.359272   1.000000
   45        3.438384   1.000000
   46        3.523349   1.000000
   47        3.585311   1.000000
   48        3.680505   1.000000
   49        3.693427   1.000000
   50        3.795807   1.000000
   51        3.825211   1.000000
   52        3.858759   1.000000
   53        3.940127   1.000000
   54        4.048701   1.000000
   55        4.100012   1.000000
   56        4.191829   1.000000
   57        4.291617   1.000000
   58        4.415746   1.000000
   59        4.478782   1.000000
   60        4.571386   1.000000
   61        4.615801   1.000000
   62        4.678626   1.000000
   63        4.750410   1.000000
   64        4.777388   1.000000
   65        4.849611   1.000000
   66        4.904034   1.000000
   67        4.948863   1.000000
   68        4.960678   1.000000
   69        5.016131   1.000000
   70        5.061195   1.000000
   71        5.110958   1.000000
   72        5.158567   1.000000
   73        5.254350   1.000000
   74        5.311605   1.000000
   75        5.365283   1.000000
   76        5.446733   1.000000
   77        5.518750   1.000000
   78        5.574551   1.000000
   79        5.616418   1.000000
   80        5.754633   1.000000
   81        5.764107   1.000000
   82        5.854751   1.000000
   83        5.925479   1.000000
   84        5.962848   1.000000
   85        6.019464   1.000002
   86        6.058232   1.000006
   87        6.139391   1.000076
   88        6.177422   1.000216
   89        6.223131   1.000675
   90        6.271949   1.002004
   91        6.322184   1.005287
   92        6.342085   1.007432
   93        6.437445   1.025582
   94        6.570575   1.007764
   95        6.607605   0.958035
   96        6.681804   0.758726
   97        6.815340   0.227164
   98        6.868703   0.075233
   99        6.991955  -0.035457
  100        7.088980  -0.018023
  101        7.134458  -0.009673
  102        7.228403  -0.001720
  103        7.289845  -0.000417
  104        7.323092  -0.000177
  105        7.579838  -0.000000
  106        7.676772  -0.000000
  107        7.732821  -0.000000
  108        7.869516  -0.000000
  109        8.030618  -0.000000
  110        8.082015  -0.000000
  111        8.174254  -0.000000
  112        8.297953  -0.000000
  113        8.362275  -0.000000
  114        8.538115  -0.000000
  115        8.616595  -0.000000
  116        8.728740  -0.000000
  117        8.825337  -0.000000
  118        8.865233  -0.000000
  119        8.944134  -0.000000
  120        8.982918  -0.000000
 
  0.2000000E+00  0.2000000E+00 -0.4857226E-16  0.1600000E-01
    1      -47.525578   1.000000
    2      -47.397534   1.000000
    3      -47.301534   1.000000
    4      -47.248507   1.000000
    5      -47.237957   1.000000
    6      -47.079906   1.000000
    7      -24.075292   1.000000
    8      -23.907867   1.000000
    9      -23.837353   1.000000
   10      -23.757411   1.000000
   11      -23.697008   1.000000
   12      -23.547352   1.000000
   13      -23.517827   1.000000
   14      -23.508643   1.000000
   15      -23.473206   1.000000
   16      -23.448693   1.000000
   17      -23.413169   1.000000
   18      -23.392581   1.000000
   19      -23.335504   1.000000
   20      -23.263715   1.000000
   21      -23.237489   1.000000
   22      -23.039422   1.000000
   23      -22.971084   1.000000
   24      -22.960240   1.000000
   25       -0.241143   1.000000
   26        1.053786   1.000000
   27        1.329246   1.000000
   28        2.070225   1.000000
   29        2.164987   1.000000
   30        2.314088   1.000000
   31        2.414483   1.000000
   32        2.515847   1.000000
   33        2.639051   1.000000
   34        2.713329   1.000000
   35        2.799104   1.000000
   36        2.828924   1.000000
   37        2.983688   1.000000
   38        3.029831   1.000000
   39        3.045218   1.000000
   40        3.149413   1.000000
   41        3.194341   1.000000
   42        3.282843   1.000000
   43        3.425568   1.000000
   44        3.459676   1.000000
   45        3.570040   1.000000
   46        3.629118   1.000000
   47        3.696295   1.000000
   48        3.760341   1.000000
   49        3.806138   1.000000
   50        3.844324   1.000000
   51        3.915907   1.000000
   52        3.963455   1.000000
   53        4.053017   1.000000
   54        4.133531   1.000000
   55        4.201465   1.000000
   56        4.276785   1.000000
   57        4.365975   1.000000
   58        4.435239   1.000000
   59        4.496546   1.000000
   60        4.604143   1.000000
   61        4.650987   1.000000
   62        4.720202   1.000000
   63        4.759328   1.000000
   64        4.811464   1.000000
   65        4.855611   1.000000
   66        4.911662   1.000000
   67        4.938532   1.000000
   68        4.999621   1.000000
   69        5.038380   1.000000
   70        5.067902   1.000000
   71        5.111449   1.000000
   72        5.197798   1.000000
   73        5.226725   1.000000
   74        5.266770   1.000000
   75        5.373431   1.000000
   76        5.441607   1.000000
   77        5.515086   1.000000
   78        5.534605   1.000000
   79        5.621423   1.000000
   80        5.679374   1.000000
   81        5.736968   1.000000
   82        5.769904   1.000000
   83        5.844025   1.000000
   84        5.891078   1.000000
   85        5.966274   1.000000
   86        6.050377   1.000005
   87        6.145057   1.000090
   88        6.191278   1.000309
   89        6.251070   1.001280
   90        6.297426   1.003342
   91        6.341766   1.007393
   92        6.376705   1.012611
   93        6.441643   1.026543
   94        6.534221   1.030401
   95        6.573395   1.005023
   96        6.676905   0.775851
   97        6.759110   0.447008
   98        6.828178   0.184463
   99        6.881303   0.049638
  100        6.963063  -0.031707
  101        7.014930  -0.033665
  102        7.058420  -0.024949
  103        7.134450  -0.009674
  104        7.202502  -0.002926
  105        7.280744  -0.000522
  106        7.317254  -0.000207
  107        7.400958  -0.000019
  108        7.477905  -0.000001
  109        7.705134  -0.000000
  110        7.928453  -0.000000
  111        8.027341  -0.000000
  112        8.162963  -0.000000
  113        8.312241  -0.000000
  114        8.464907  -0.000000
  115        8.621100  -0.000000
  116        8.656650  -0.000000
  117        8.805775  -0.000000
  118        8.870195  -0.000000
  119        8.910396  -0.000000
  120        8.995268  -0.000000
 
  0.4000000E+00  0.2000000E+00 -0.5551115E-16  0.1600000E-01
    1      -47.523509   1.000000
    2      -47.370784   1.000000
    3      -47.300420   1.000000
    4      -47.277401   1.000000
    5      -47.238010   1.000000
    6      -47.079691   1.000000
    7      -23.948323   1.000000
    8      -23.857029   1.000000
    9      -23.764463   1.000000
   10      -23.729607   1.000000
   11      -23.679427   1.000000
   12      -23.534086   1.000000
   13      -23.522391   1.000000
   14      -23.499745   1.000000
   15      -23.484966   1.000000
   16      -23.462505   1.000000
   17      -23.425784   1.000000
   18      -23.419849   1.000000
   19      -23.338075   1.000000
   20      -23.297800   1.000000
   21      -23.268817   1.000000
   22      -23.213257   1.000000
   23      -23.041077   1.000000
   24      -22.967592   1.000000
   25        0.518794   1.000000
   26        1.503499   1.000000
   27        1.830385   1.000000
   28        2.051694   1.000000
   29        2.349700   1.000000
   30        2.431601   1.000000
   31        2.629678   1.000000
   32        2.922811   1.000000
   33        3.029499   1.000000
   34        3.124094   1.000000
   35        3.147250   1.000000
   36        3.257949   1.000000
   37        3.297098   1.000000
   38        3.360792   1.000000
   39        3.433905   1.000000
   40        3.481425   1.000000
   41        3.506758   1.000000
   42        3.545953   1.000000
   43        3.603907   1.000000
   44        3.684758   1.000000
   45        3.747266   1.000000
   46        3.770653   1.000000
   47        3.900616   1.000000
   48        3.991586   1.000000
   49        4.025130   1.000000
   50        4.076378   1.000000
   51        4.130047   1.000000
   52        4.163542   1.000000
   53        4.179682   1.000000
   54        4.238406   1.000000
   55        4.276300   1.000000
   56        4.384612   1.000000
   57        4.486509   1.000000
   58        4.553897   1.000000
   59        4.629997   1.000000
   60        4.688859   1.000000
   61        4.725103   1.000000
   62        4.760250   1.000000
   63        4.840159   1.000000
   64        4.885852   1.000000
   65        4.934684   1.000000
   66        5.007589   1.000000
   67        5.038021   1.000000
   68        5.109978   1.000000
   69        5.164980   1.000000
   70        5.204614   1.000000
   71        5.239222   1.000000
   72        5.259888   1.000000
   73        5.337732   1.000000
   74        5.387495   1.000000
   75        5.470046   1.000000
   76        5.518854   1.000000
   77        5.528465   1.000000
   78        5.606176   1.000000
   79        5.682509   1.000000
   80        5.710723   1.000000
   81        5.755683   1.000000
   82        5.796443   1.000000
   83        5.846238   1.000000
   84        5.895873   1.000000
   85        5.920699   1.000000
   86        5.957798   1.000000
   87        6.007819   1.000001
   88        6.083085   1.000014
   89        6.122571   1.000047
   90        6.189809   1.000297
   91        6.216060   1.000570
   92        6.267247   1.001815
   93        6.280873   1.002408
   94        6.309580   1.004206
   95        6.371020   1.011629
   96        6.406771   1.018594
   97        6.448027   1.027978
   98        6.507494   1.035319
   99        6.570518   1.007817
  100        6.668472   0.804147
  101        6.723295   0.597702
  102        6.762455   0.432973
  103        6.825113   0.194330
  104        6.954291  -0.028688
  105        7.047269  -0.027493
  106        7.137924  -0.009168
  107        7.179968  -0.004492
  108        7.296786  -0.000351
  109        7.489154  -0.000001
  110        7.618440  -0.000000
  111        7.716462  -0.000000
  112        7.765823  -0.000000
  113        7.949745  -0.000000
  114        8.044854  -0.000000
  115        8.123622  -0.000000
  116        8.239292  -0.000000
  117        8.293745  -0.000000
  118        8.359593  -0.000000
  119        8.445053  -0.000000
  120        8.470113  -0.000000
 
 -0.4000000E+00  0.2000000E+00 -0.3908332E-16  0.1600000E-01
    1      -47.523492   1.000000
    2      -47.370778   1.000000
    3      -47.300077   1.000000
    4      -47.277394   1.000000
    5      -47.238061   1.000000
    6      -47.079994   1.000000
    7      -23.947918   1.000000
    8      -23.855926   1.000000
    9      -23.760687   1.000000
   10      -23.726255   1.000000
   11      -23.679320   1.000000
   12      -23.534009   1.000000
   13      -23.522361   1.000000
   14      -23.500005   1.000000
   15      -23.485015   1.000000
   16      -23.462656   1.000000
   17      -23.425859   1.000000
   18      -23.419956   1.000000
   19      -23.337926   1.000000
   20      -23.297836   1.000000
   21      -23.268729   1.000000
   22      -23.213293   1.000000
   23      -23.045439   1.000000
   24      -22.974299   1.000000
   25        0.860947   1.000000
   26        1.571937   1.000000
   27        1.739354   1.000000
   28        2.126885   1.000000
   29        2.213296   1.000000
   30        2.497317   1.000000
   31        2.638813   1.000000
   32        2.808842   1.000000
   33        2.948469   1.000000
   34        3.063736   1.000000
   35        3.110840   1.000000
   36        3.170987   1.000000
   37        3.291622   1.000000
   38        3.351027   1.000000
   39        3.411973   1.000000
   40        3.468209   1.000000
   41        3.518419   1.000000
   42        3.573164   1.000000
   43        3.620459   1.000000
   44        3.682683   1.000000
   45        3.766178   1.000000
   46        3.786223   1.000000
   47        3.949986   1.000000
   48        3.977263   1.000000
   49        4.067540   1.000000
   50        4.103986   1.000000
   51        4.205612   1.000000
   52        4.241519   1.000000
   53        4.285030   1.000000
   54        4.378798   1.000000
   55        4.425091   1.000000
   56        4.488357   1.000000
   57        4.559050   1.000000
   58        4.630625   1.000000
   59        4.646805   1.000000
   60        4.674918   1.000000
   61        4.738093   1.000000
   62        4.804940   1.000000
   63        4.848072   1.000000
   64        4.902167   1.000000
   65        4.934115   1.000000
   66        5.014711   1.000000
   67        5.048690   1.000000
   68        5.088849   1.000000
   69        5.106971   1.000000
   70        5.170461   1.000000
   71        5.236914   1.000000
   72        5.262786   1.000000
   73        5.326196   1.000000
   74        5.371975   1.000000
   75        5.428705   1.000000
   76        5.481068   1.000000
   77        5.533432   1.000000
   78        5.600605   1.000000
   79        5.651454   1.000000
   80        5.687501   1.000000
   81        5.746584   1.000000
   82        5.807732   1.000000
   83        5.840904   1.000000
   84        5.878108   1.000000
   85        5.902001   1.000000
   86        5.972226   1.000000
   87        5.997215   1.000001
   88        6.066789   1.000008
   89        6.092234   1.000019
   90        6.131502   1.000061
   91        6.211605   1.000512
   92        6.317166   1.004833
   93        6.346600   1.008000
   94        6.421330   1.021861
   95        6.458217   1.030153
   96        6.501604   1.035458
   97        6.538925   1.028648
   98        6.613036   0.948054
   99        6.637921   0.892889
  100        6.676101   0.778613
  101        6.720475   0.609334
  102        6.782647   0.350021
  103        6.845571   0.132628
  104        6.932186  -0.015972
  105        6.972589  -0.033895
  106        7.038529  -0.029399
  107        7.153055  -0.007188
  108        7.249567  -0.001082
  109        7.285357  -0.000466
  110        7.305482  -0.000281
  111        7.416478  -0.000012
  112        7.584612  -0.000000
  113        7.689341  -0.000000
  114        7.797439  -0.000000
  115        7.944912  -0.000000
  116        8.041111  -0.000000
  117        8.174686  -0.000000
  118        8.216814  -0.000000
  119        8.269308  -0.000000
  120        8.340697  -0.000000
 
 -0.2000000E+00  0.2000000E+00  0.1006140E-15  0.1600000E-01
    1      -47.525552   1.000000
    2      -47.397524   1.000000
    3      -47.300982   1.000000
    4      -47.248505   1.000000
    5      -47.238027   1.000000
    6      -47.080395   1.000000
    7      -24.075335   1.000000
    8      -23.906310   1.000000
    9      -23.836545   1.000000
   10      -23.746851   1.000000
   11      -23.695734   1.000000
   12      -23.547472   1.000000
   13      -23.517792   1.000000
   14      -23.508888   1.000000
   15      -23.473357   1.000000
   16      -23.448849   1.000000
   17      -23.413127   1.000000
   18      -23.392924   1.000000
   19      -23.335264   1.000000
   20      -23.263569   1.000000
   21      -23.237571   1.000000
   22      -23.045737   1.000000
   23      -22.977524   1.000000
   24      -22.965312   1.000000
   25        0.000880   1.000000
   26        1.191124   1.000000
   27        1.426976   1.000000
   28        1.680371   1.000000
   29        2.079286   1.000000
   30        2.435943   1.000000
   31        2.558943   1.000000
   32        2.655921   1.000000
   33        2.715466   1.000000
   34        2.765342   1.000000
   35        2.833501   1.000000
   36        2.887241   1.000000
   37        2.940582   1.000000
   38        3.014211   1.000000
   39        3.026633   1.000000
   40        3.089977   1.000000
   41        3.171296   1.000000
   42        3.266298   1.000000
   43        3.348959   1.000000
   44        3.415697   1.000000
   45        3.506364   1.000000
   46        3.633443   1.000000
   47        3.709056   1.000000