 running on   32 total cores
 distrk:  each k-point on   32 cores,    1 groups
 distr:  one band on    4 cores,    8 groups
 using from now: INCAR     
 vasp.5.4.4.18Apr17-6-g9f103f2a35 (build Aug 09 2018 16:20:53) complex          
  
 POSCAR found :  5 types and      29 ions
 scaLAPACK will be used

 ----------------------------------------------------------------------------- 
|                                                                             |
|  ADVICE TO THIS USER RUNNING 'VASP/VAMP'   (HEAR YOUR MASTER'S VOICE ...):  |
|                                                                             |
|      You enforced a specific xc-type in the INCAR file,                     |
|      a different type was found on the POTCAR file                          |
|          I HOPE YOU KNOW, WHAT YOU ARE  DOING                               |
|                                                                             |
 ----------------------------------------------------------------------------- 

 LDA part: xc-table for Pade appr. of Perdew
 POSCAR found :  5 types and      29 ions
 POSCAR, INCAR and KPOINTS ok, starting setup
 FFT: planning ...
 WAVECAR not read
 entering main loop
       N       E                     dE             d eps       ncg     rms          rms(c)
DAV:   1     0.214949433453E+04    0.21495E+04   -0.91354E+04 15120   0.175E+03
DAV:   2     0.715756872840E+02   -0.20779E+04   -0.20160E+04 15168   0.518E+02
DAV:   3    -0.300111938389E+03   -0.37169E+03   -0.35370E+03 26280   0.182E+02
DAV:   4    -0.345754970508E+03   -0.45643E+02   -0.42203E+02 23272   0.598E+01
DAV:   5    -0.350899948553E+03   -0.51450E+01   -0.50142E+01 28936   0.217E+01    0.744E+01
DAV:   6    -0.342881653700E+03    0.80183E+01   -0.12737E+02 21184   0.323E+01    0.382E+01
DAV:   7    -0.356720414451E+03   -0.13839E+02   -0.48733E+02 20968   0.924E+01    0.281E+01
DAV:   8    -0.346633879095E+03    0.10087E+02   -0.12342E+02 22520   0.375E+01    0.207E+01
DAV:   9    -0.334138101154E+03    0.12496E+02   -0.21577E+01 21272   0.153E+01    0.143E+01
DAV:  10    -0.330463040218E+03    0.36751E+01   -0.10532E+01 22120   0.927E+00    0.999E+00
DAV:  11    -0.329168482234E+03    0.12946E+01   -0.40532E+00 22504   0.558E+00    0.649E+00
DAV:  12    -0.328750766781E+03    0.41772E+00   -0.15998E+00 22240   0.400E+00    0.401E+00
DAV:  13    -0.328651443451E+03    0.99323E-01   -0.14765E+00 21160   0.368E+00    0.260E+00
DAV:  14    -0.328573705291E+03    0.77738E-01   -0.12523E+00 21816   0.327E+00    0.143E+00
DAV:  15    -0.328559737809E+03    0.13967E-01   -0.41854E-01 23040   0.189E+00    0.117E+00
DAV:  16    -0.328553344205E+03    0.63936E-02   -0.12562E-01 22752   0.101E+00    0.784E-01
DAV:  17    -0.328548261278E+03    0.50829E-02   -0.47216E-02 21560   0.650E-01    0.600E-01
DAV:  18    -0.328545208244E+03    0.30530E-02   -0.42608E-02 21320   0.586E-01    0.262E-01
DAV:  19    -0.328545095695E+03    0.11255E-03   -0.90601E-03 22536   0.290E-01    0.215E-01
DAV:  20    -0.328544346740E+03    0.74896E-03   -0.42408E-03 20040   0.199E-01    0.671E-02
DAV:  21    -0.328544335847E+03    0.10893E-04   -0.92907E-04 18272   0.103E-01
   1 F= -.32854434E+03 E0= -.32853887E+03  d E =-.328544E+03
 curvature:   0.00 expect dE= 0.000E+00 dE for cont linesearch  0.000E+00
 trial: gam= 0.00000 g(F)=  0.627E+00 g(S)=  0.278E+00 ort = 0.000E+00 (trialstep = 0.100E+01)
 search vector abs. value=  0.905E+00
 bond charge predicted
       N       E                     dE             d eps       ncg     rms          rms(c)
DAV:   1    -0.329650089307E+03   -0.11057E+01   -0.11494E+02 16120   0.432E+01    0.108E+01
DAV:   2    -0.330087231028E+03   -0.43714E+00   -0.18198E+01 22904   0.177E+01    0.755E+00
DAV:   3    -0.329418982712E+03    0.66825E+00   -0.10852E+01 21552   0.101E+01    0.592E+00
DAV:   4    -0.329221580707E+03    0.19740E+00   -0.63036E+00 22952   0.808E+00    0.388E+00
DAV:   5    -0.328934675815E+03    0.28690E+00   -0.19270E+00 22448   0.505E+00    0.189E+00
DAV:   6    -0.328872748917E+03    0.61927E-01   -0.63446E-01 23416   0.250E+00    0.122E+00
DAV:   7    -0.328878918233E+03   -0.61693E-02   -0.23883E-01 24736   0.140E+00    0.925E-01
DAV:   8    -0.328876992151E+03    0.19261E-02   -0.84114E-02 22808   0.841E-01    0.658E-01
DAV:   9    -0.328880429298E+03   -0.34371E-02   -0.35590E-02 22360   0.562E-01    0.473E-01
DAV:  10    -0.328882192392E+03   -0.17631E-02   -0.20891E-02 23360   0.461E-01    0.310E-01
DAV:  11    -0.328883392995E+03   -0.12006E-02   -0.12264E-02 23216   0.352E-01    0.234E-01
DAV:  12    -0.328883202281E+03    0.19071E-03   -0.70658E-03 22552   0.244E-01    0.131E-01
DAV:  13    -0.328883190107E+03    0.12175E-04   -0.20457E-03 22056   0.132E-01    0.752E-02
DAV:  14    -0.328883220728E+03   -0.30621E-04   -0.89188E-04 18136   0.957E-02
   2 F= -.32888322E+03 E0= -.32887892E+03  d E =-.338885E+00
 trial-energy change:   -0.338885  1 .order   -0.326900   -0.904969    0.251169
 step:   0.7930(harm=  0.7828)  dis= 0.03743  next Energy=  -328.909115 (dE=-0.365E+00)
 bond charge predicted
       N       E                     dE             d eps       ncg     rms          rms(c)
DAV:   1    -0.328941204305E+03   -0.58014E-01   -0.49807E+00 16432   0.902E+00    0.229E+00
DAV:   2    -0.328960098448E+03   -0.18894E-01   -0.74300E-01 24032   0.356E+00    0.174E+00
DAV:   3    -0.328942862851E+03    0.17236E-01   -0.63251E-01 21936   0.249E+00    0.135E+00
DAV:   4    -0.328924046342E+03    0.18817E-01   -0.23648E-01 23808   0.153E+00    0.781E-01
DAV:   5    -0.328911451467E+03    0.12595E-01   -0.88705E-02 22504   0.107E+00    0.386E-01
DAV:   6    -0.328909119179E+03    0.23323E-02   -0.29879E-02 23296   0.560E-01    0.256E-01
DAV:   7    -0.328909284746E+03   -0.16557E-03   -0.11018E-02 23152   0.311E-01    0.197E-01
DAV:   8    -0.328909166713E+03    0.11803E-03   -0.39032E-03 20200   0.188E-01    0.145E-01
DAV:   9    -0.328909278024E+03   -0.11131E-03   -0.20203E-03 19520   0.135E-01    0.121E-01
DAV:  10    -0.328909329499E+03   -0.51475E-04   -0.13728E-03 19224   0.118E-01    0.842E-02
DAV:  11    -0.328909327495E+03    0.20039E-05   -0.78048E-04 17056   0.100E-01
   3 F= -.32890933E+03 E0= -.32890490E+03  d E =-.364992E+00
 curvature:  -0.39 expect dE=-0.358E+00 dE for cont linesearch -0.916E-05
 trial: gam= 1.01849 g(F)=  0.268E+00 g(S)=  0.649E+00 ort =-0.461E-02 (trialstep = 0.470E+00)
 search vector abs. value=  0.185E+01
 bond charge predicted
       N       E                     dE             d eps       ncg     rms          rms(c)
DAV:   1    -0.329108675159E+03   -0.19935E+00   -0.48732E+01 15224   0.237E+01    0.319E+00
DAV:   2    -0.329292124876E+03   -0.18345E+00   -0.35885E+00 21848   0.738E+00    0.233E+00
DAV:   3    -0.329275657658E+03    0.16467E-01   -0.12929E+00 22840   0.364E+00    0.181E+00
DAV:   4    -0.329229943948E+03    0.45714E-01   -0.39170E-01 22216   0.201E+00    0.986E-01
DAV:   5    -0.329223665789E+03    0.62782E-02   -0.11200E-01 22728   0.118E+00    0.708E-01
DAV:   6    -0.329223984157E+03   -0.31837E-03   -0.12359E-01 23440   0.108E+00    0.682E-01
DAV:   7    -0.329217060277E+03    0.69239E-02   -0.56187E-02 24984   0.672E-01    0.300E-01
DAV:   8    -0.329216547806E+03    0.51247E-03   -0.96026E-03 21600   0.304E-01    0.228E-01
DAV:   9    -0.329216494475E+03    0.53331E-04   -0.32193E-03 20592   0.167E-01    0.186E-01
DAV:  10    -0.329216556560E+03   -0.62085E-04   -0.16315E-03 19416   0.126E-01    0.130E-01
DAV:  11    -0.329216710282E+03   -0.15372E-03   -0.19583E-03 19600   0.147E-01    0.979E-02
DAV:  12    -0.329216611306E+03    0.98976E-04   -0.11946E-03 18520   0.119E-01    0.365E-02
DAV:  13    -0.329216581525E+03    0.29780E-04   -0.22036E-04 10720   0.711E-02
   4 F= -.32921658E+03 E0= -.32921337E+03  d E =-.307254E+00
 trial-energy change:   -0.307254  1 .order   -0.307341   -0.428663   -0.186019
 step:   0.8300(harm=  0.8300)  dis= 0.06426  next Energy=  -329.287972 (dE=-0.379E+00)
 bond charge predicted
       N       E                     dE             d eps       ncg     rms          rms(c)
DAV:   1    -0.329226132102E+03   -0.95208E-02   -0.28575E+01 15224   0.181E+01    0.238E+00
DAV:   2    -0.329332165083E+03   -0.10603E+00   -0.20809E+00 21976   0.563E+00    0.175E+00
DAV:   3    -0.329322844819E+03    0.93203E-02   -0.73355E-01 22936   0.273E+00    0.137E+00
DAV:   4    -0.329296829291E+03    0.26016E-01   -0.22460E-01 21936   0.152E+00    0.762E-01
DAV:   5    -0.329293281756E+03    0.35475E-02   -0.68133E-02 22680   0.923E-01    0.574E-01
DAV:   6    -0.329292325379E+03    0.95638E-03   -0.76615E-02 23424   0.829E-01    0.497E-01
DAV:   7    -0.329288784102E+03    0.35413E-02   -0.30708E-02 24912   0.498E-01    0.231E-01
DAV:   8    -0.329288514180E+03    0.26992E-03   -0.60419E-03 21376   0.242E-01    0.180E-01
DAV:   9    -0.329288438655E+03    0.75525E-04   -0.21286E-03 20104   0.135E-01    0.140E-01
DAV:  10    -0.329288481897E+03   -0.43242E-04   -0.91951E-04 17048   0.968E-02
   5 F= -.32928848E+03 E0= -.32928576E+03  d E =-.379154E+00
 curvature:  -0.84 expect dE=-0.106E+00 dE for cont linesearch -0.882E-05
 trial: gam= 0.01740 g(F)=  0.115E+00 g(S)=  0.113E-01 ort = 0.440E-02 (trialstep = 0.542E+00)
 search vector abs. value=  0.127E+00
 bond charge predicted
       N       E                     dE             d eps       ncg     rms          rms(c)
DAV:   1    -0.329329164459E+03   -0.40726E-01   -0.50883E+00 15496   0.802E+00    0.130E+00
DAV:   2    -0.329357559351E+03   -0.28395E-01   -0.45187E-01 22272   0.254E+00    0.110E+00
DAV:   3    -0.329350475163E+03    0.70842E-02   -0.23916E-01 23104   0.151E+00    0.814E-01
DAV:   4    -0.329343481031E+03    0.69941E-02   -0.70242E-02 22424   0.888E-01    0.462E-01
DAV:   5    -0.329339886700E+03    0.35943E-02   -0.35903E-02 22520   0.627E-01    0.226E-01
DAV:   6    -0.329339512809E+03    0.37389E-03   -0.12373E-02 23736   0.355E-01    0.192E-01
DAV:   7    -0.329339148619E+03    0.36419E-03   -0.55985E-03 22120   0.228E-01    0.121E-01
DAV:   8    -0.329339014041E+03    0.13458E-03   -0.11756E-03 19320   0.109E-01    0.809E-02
DAV:   9    -0.329339037657E+03   -0.23616E-04   -0.35040E-04 12824   0.668E-02
   6 F= -.32933904E+03 E0= -.32933665E+03  d E =-.505558E-01
 trial-energy change:   -0.050556  1 .order   -0.051366   -0.068241   -0.034491
 step:   1.4382(harm=  1.0956)  dis= 0.03072  next Energy=  -329.363898 (dE=-0.754E-01)
 bond charge predicted
       N       E                     dE             d eps       ncg     rms          rms(c)
DAV:   1    -0.329324658987E+03    0.14355E-01   -0.13955E+01 15488   0.133E+01    0.215E+00
DAV:   2    -0.329404808587E+03   -0.80150E-01   -0.12657E+00 22088   0.423E+00    0.189E+00
DAV:   3    -0.329383121654E+03    0.21687E-01   -0.69838E-01 23408   0.260E+00    0.136E+00
DAV:   4    -0.329364173533E+03    0.18948E-01   -0.19354E-01 23104   0.146E+00    0.789E-01
DAV:   5    -0.329353387229E+03    0.10786E-01   -0.10223E-01 22496   0.105E+00    0.380E-01
DAV:   6    -0.329352479518E+03    0.90771E-03   -0.35637E-02 23944   0.608E-01    0.330E-01
DAV:   7    -0.329351311115E+03    0.11684E-02   -0.16866E-02 24040   0.396E-01    0.202E-01
DAV:   8    -0.329350914914E+03    0.39620E-03   -0.35047E-03 21264   0.186E-01    0.131E-01
DAV:   9    -0.329351001130E+03   -0.86216E-04   -0.11782E-03 19232   0.102E-01    0.104E-01
DAV:  10    -0.329351065308E+03   -0.64177E-04   -0.91462E-04 17176   0.955E-02
   7 F= -.32935107E+03 E0= -.32934908E+03  d E =-.625834E-01
 curvature:  -0.34 expect dE=-0.767E-01 dE for cont linesearch -0.325E-02
 ZBRENT: interpolating
 opt :   1.1213  next Energy=  -329.356582 (dE=-0.681E-01)
 bond charge predicted
       N       E                     dE             d eps       ncg     rms          rms(c)
DAV:   1    -0.329354698295E+03   -0.36972E-02   -0.17433E+00 15952   0.469E+00    0.741E-01
DAV:   2    -0.329364558407E+03   -0.98601E-02   -0.16103E-01 22496   0.151E+00    0.674E-01
DAV:   3    -0.329360407919E+03    0.41505E-02   -0.80734E-02 23312   0.845E-01    0.466E-01
DAV:   4    -0.329358728940E+03    0.16790E-02   -0.25290E-02 22552   0.514E-01    0.298E-01
DAV:   5    -0.329357335954E+03    0.13930E-02   -0.13928E-02 22488   0.385E-01    0.140E-01
DAV:   6    -0.329357140595E+03    0.19536E-03   -0.45231E-03 23000   0.218E-01    0.114E-01
DAV:   7    -0.329357014022E+03    0.12657E-03   -0.21702E-03 20016   0.143E-01    0.695E-02
DAV:   8    -0.329356944382E+03    0.69639E-04   -0.34592E-04 11968   0.729E-02
   8 F= -.32935694E+03 E0= -.32935485E+03  d E =-.684625E-01
 curvature:  -0.58 expect dE=-0.832E-01 dE for cont linesearch -0.378E-05
 trial: gam= 1.15452 g(F)=  0.240E-01 g(S)=  0.120E+00 ort =-0.912E-03 (trialstep = 0.268E+00)
 search vector abs. value=  0.311E+00
 bond charge predicted
       N       E                     dE             d eps       ncg     rms          rms(c)
DAV:   1    -0.329386281327E+03   -0.29267E-01   -0.30291E+00 15424   0.653E+00    0.120E+00
DAV:   2    -0.329396110182E+03   -0.98289E-02   -0.29754E-01 21536   0.209E+00    0.748E-01
DAV:   3    -0.329395092511E+03    0.10177E-02   -0.15142E-01 22168   0.131E+00    0.672E-01
DAV:   4    -0.329388998396E+03    0.60941E-02   -0.61427E-02 21536   0.811E-01    0.400E-01
DAV:   5    -0.329386719755E+03    0.22786E-02   -0.27815E-02 22544   0.529E-01    0.243E-01
DAV:   6    -0.329385860191E+03    0.85956E-03   -0.96495E-03 23128   0.290E-01    0.119E-01
DAV:   7    -0.329385919713E+03   -0.59522E-04   -0.30384E-03 21408   0.160E-01    0.968E-02
DAV:   8    -0.329385898143E+03    0.21570E-04   -0.10195E-03 18344   0.934E-02    0.690E-02
DAV:   9    -0.329385926473E+03   -0.28330E-04   -0.21884E-04 11072   0.607E-02
   9 F= -.32938593E+03 E0= -.32938380E+03  d E =-.289821E-01
 trial-energy change:   -0.028982  1 .order   -0.029437   -0.038371   -0.020503
 step:   0.8974(harm=  0.5749)  dis= 0.02523  next Energy=  -329.404119 (dE=-0.472E-01)
 bond charge predicted
       N       E                     dE             d eps       ncg     rms          rms(c)
DAV:   1    -0.329390933567E+03   -0.50354E-02   -0.16806E+01 15768   0.154E+01    0.286E+00
DAV:   2    -0.329439714498E+03   -0.48781E-01   -0.16175E+00 21816   0.487E+00    0.178E+00
DAV:   3    -0.329428302786E+03    0.11412E-01   -0.81376E-01 22248   0.302E+00    0.155E+00
DAV:   4    -0.329398160013E+03    0.30143E-01   -0.34188E-01 22256   0.193E+00    0.951E-01
DAV:   5    -0.329385218563E+03    0.12941E-01   -0.16200E-01 22568   0.128E+00    0.571E-01
DAV:   6    -0.329380354449E+03    0.48641E-02   -0.51325E-02 23824   0.668E-01    0.275E-01
DAV:   7    -0.329380810738E+03   -0.45629E-03   -0.15716E-02 24080   0.363E-01    0.236E-01
DAV:   8    -0.329380700917E+03    0.10982E-03   -0.53873E-03 20216   0.205E-01    0.175E-01
DAV:   9    -0.329380861538E+03   -0.16062E-03   -0.15245E-03 20000   0.130E-01    0.134E-01
DAV:  10    -0.329381174973E+03   -0.31343E-03   -0.15814E-03 20584   0.129E-01    0.105E-01
DAV:  11    -0.329381266983E+03   -0.92010E-04   -0.15537E-03 20160   0.127E-01    0.558E-02
DAV:  12    -0.329381268174E+03   -0.11916E-05   -0.47157E-04 14056   0.812E-02
  10 F= -.32938127E+03 E0= -.32937901E+03  d E =-.243238E-01
 curvature:   0.06 expect dE= 0.743E-02 dE for cont linesearch  0.170E-02
 ZBRENT: interpolating
 opt :   0.5558  next Energy=  -329.396958 (dE=-0.400E-01)
 bond charge predicted
       N       E                     dE             d eps       ncg     rms          rms(c)
DAV:   1    -0.329396777774E+03   -0.15511E-01   -0.49529E+00 15408   0.841E+00    0.157E+00
DAV:   2    -0.329413179163E+03   -0.16401E-01   -0.48619E-01 21952   0.266E+00    0.970E-01
DAV:   3    -0.329413534567E+03   -0.35540E-03   -0.25456E-01 22856   0.169E+00    0.898E-01
DAV:   4    -0.329402075961E+03    0.11459E-01   -0.10127E-01 22264   0.105E+00    0.516E-01
DAV:   5    -0.329398099159E+03    0.39768E-02   -0.45104E-02 22536   0.675E-01    0.315E-01
DAV:   6    -0.329396752852E+03    0.13463E-02   -0.17191E-02 23208   0.388E-01    0.160E-01
DAV:   7    -0.329396713461E+03    0.39391E-04   -0.55547E-03 22352   0.221E-01    0.118E-01
DAV:   8    -0.329396636017E+03    0.77444E-04   -0.17842E-03 19688   0.122E-01    0.810E-02
DAV:   9    -0.329396661353E+03   -0.25336E-04   -0.47279E-04 14392   0.725E-02
  11 F= -.32939666E+03 E0= -.32939448E+03  d E =-.397170E-01
 curvature:  -0.42 expect dE=-0.118E-01 dE for cont linesearch -0.129E-04
 trial: gam= 0.18207 g(F)=  0.266E-01 g(S)=  0.195E-02 ort =-0.311E-02 (trialstep = 0.325E+00)
 search vector abs. value=  0.377E-01
 bond charge predicted
       N       E                     dE             d eps       ncg     rms          rms(c)
DAV:   1    -0.329403463700E+03   -0.68277E-02   -0.49541E-01 16520   0.234E+00    0.160E-01
DAV:   2    -0.329405692076E+03   -0.22284E-02   -0.27033E-02 23904   0.683E-01    0.172E-01
DAV:   3    -0.329405366359E+03    0.32572E-03   -0.56424E-03 23552   0.246E-01    0.112E-01
DAV:   4    -0.329405284086E+03    0.82274E-04   -0.11260E-03 18520   0.105E-01    0.786E-02
DAV:   5    -0.329405255259E+03    0.28826E-04   -0.34360E-04 12488   0.766E-02
  12 F= -.32940526E+03 E0= -.32940304E+03  d E =-.859391E-02
 ZBRENT: can't locate minimum, use default step
 trial-energy change:   -0.008594  1 .order   -0.008565   -0.009088   -0.008042
 step:   1.3012(harm=  2.8263)  dis= 0.02019  next Energy=  -329.436141 (dE=-0.395E-01)
 bond charge predicted
       N       E                     dE             d eps       ncg     rms          rms(c)
DAV:   1    -0.329407107639E+03   -0.18236E-02   -0.44427E+00 16296   0.701E+00    0.476E-01
DAV:   2    -0.329427779295E+03   -0.20672E-01   -0.25239E-01 24072   0.210E+00    0.541E-01
DAV:   3    -0.329423996451E+03    0.37828E-02   -0.54420E-02 23136   0.746E-01    0.320E-01
DAV:   4    -0.329423303085E+03    0.69337E-03   -0.11171E-02 23600   0.327E-01    0.227E-01
DAV:   5    -0.329422965052E+03    0.33803E-03   -0.42494E-03 21576   0.221E-01    0.168E-01
DAV:   6    -0.329422770243E+03    0.19481E-03   -0.38076E-03 21608   0.208E-01    0.120E-01
DAV:   7    -0.329422614203E+03    0.15604E-03   -0.21347E-03 20768   0.149E-01    0.722E-02
DAV:   8    -0.329422524842E+03    0.89361E-04   -0.71075E-04 15312   0.963E-02
  13 F= -.32942252E+03 E0= -.32942021E+03  d E =-.258635E-01
 curvature:  -1.20 expect dE=-0.869E-02 dE for cont linesearch -0.368E-02
 ZBRENT: increasing intervall
 opt :   3.2531  next Energy=  -329.416292 (dE=-0.196E-01)
 bond charge predicted
       N       E                     dE             d eps       ncg     rms          rms(c)
DAV:   1    -0.329354654627E+03    0.67960E-01   -0.17784E+01 16280   0.140E+01    0.978E-01
DAV:   2    -0.329441817461E+03   -0.87163E-01   -0.10511E+00 24352   0.435E+00    0.111E+00
DAV:   3    -0.329425061317E+03    0.16756E-01   -0.22858E-01 23824   0.157E+00    0.668E-01
DAV:   4    -0.329421855371E+03    0.32059E-02   -0.47860E-02 23232   0.674E-01    0.471E-01
DAV:   5    -0.329420498578E+03    0.13568E-02   -0.15563E-02 22848   0.414E-01    0.349E-01
DAV:   6    -0.329419938209E+03    0.56037E-03   -0.13895E-02 22704   0.397E-01    0.266E-01
DAV:   7    -0.329419424087E+03    0.51412E-03   -0.94807E-03 23304   0.316E-01    0.175E-01
DAV:   8    -0.329418868767E+03    0.55532E-03   -0.42453E-03 22456   0.222E-01    0.862E-02
DAV:   9    -0.329418759632E+03    0.10914E-03   -0.11185E-03 18208   0.108E-01    0.425E-02
DAV:  10    -0.329418757566E+03    0.20654E-05   -0.33796E-04 13072   0.636E-02
  14 F= -.32941876E+03 E0= -.32941636E+03  d E =-.220962E-01
 curvature:   2.03 expect dE= 0.558E-01 dE for cont linesearch  0.126E-01
 ZBRENT: bracketing found
 ZBRENT: interpolating
 opt :   2.1071  next Energy=  -329.426862 (dE=-0.302E-01)
 bond charge predicted
       N       E                     dE             d eps       ncg     rms          rms(c)
DAV:   1    -0.329405758559E+03    0.13001E-01   -0.61198E+00 16528   0.824E+00    0.639E-01
DAV:   2    -0.329433129263E+03   -0.27371E-01   -0.33033E-01 23584   0.236E+00    0.613E-01
DAV:   3    -0.329430286193E+03    0.28431E-02   -0.83878E-02 23768   0.928E-01    0.438E-01
DAV:   4    -0.329428294490E+03    0.19917E-02   -0.17624E-02 23672   0.422E-01    0.262E-01
DAV:   5    -0.329427813934E+03    0.48056E-03   -0.49442E-03 21432   0.243E-01    0.196E-01
DAV:   6    -0.329427660121E+03    0.15381E-03   -0.49189E-03 22224   0.229E-01    0.147E-01
DAV:   7    -0.329427371781E+03    0.28834E-03   -0.30940E-03 22240   0.182E-01    0.861E-02
DAV:   8    -0.329427255364E+03    0.11642E-03   -0.11109E-03 17568   0.109E-01    0.425E-02
DAV:   9    -0.329427227650E+03    0.27714E-04   -0.21345E-04 11176   0.621E-02
  15 F= -.32942723E+03 E0= -.32942486E+03  d E =-.305663E-01
 curvature:  -0.70 expect dE=-0.576E-02 dE for cont linesearch -0.140E-04
 trial: gam= 0.23293 g(F)=  0.639E-02 g(S)=  0.187E-02 ort = 0.869E-03 (trialstep = 0.682E+00)
 search vector abs. value=  0.107E-01
 bond charge predicted
       N       E                     dE             d eps       ncg     rms          rms(c)
DAV:   1    -0.329431083270E+03   -0.38279E-02   -0.62924E-01 15424   0.303E+00    0.593E-01
DAV:   2    -0.329432831708E+03   -0.17484E-02   -0.58931E-02 21520   0.947E-01    0.339E-01
DAV:   3    -0.329433109823E+03   -0.27811E-03   -0.31664E-02 22376   0.594E-01    0.327E-01
DAV:   4    -0.329431428623E+03    0.16812E-02   -0.14839E-02 21336   0.390E-01    0.166E-01
DAV:   5    -0.329431152401E+03    0.27622E-03   -0.55328E-03 21448   0.235E-01    0.117E-01
DAV:   6    -0.329430925803E+03    0.22660E-03   -0.18374E-03 20120   0.142E-01    0.542E-02
DAV:   7    -0.329430918494E+03    0.73089E-05   -0.39146E-04 13552   0.765E-02
  16 F= -.32943092E+03 E0= -.32942858E+03  d E =-.369084E-02
 trial-energy change:   -0.003691  1 .order   -0.003792   -0.005765   -0.001819
 step:   0.9960(harm=  0.9960)  dis= 0.00638  next Energy=  -329.431439 (dE=-0.421E-02)
 bond charge predicted
       N       E                     dE             d eps       ncg     rms          rms(c)
DAV:   1    -0.329431284944E+03   -0.35914E-03   -0.13414E-01 15488   0.140E+00    0.267E-01
DAV:   2    -0.329431661873E+03   -0.37693E-03   -0.11706E-02 20576   0.429E-01    0.154E-01
DAV:   3    -0.329431820197E+03   -0.15832E-03   -0.66994E-03 21440   0.275E-01    0.162E-01
DAV:   4    -0.329431396014E+03    0.42418E-03   -0.32090E-03 20128   0.183E-01    0.745E-02
DAV:   5    -0.329431311401E+03    0.84613E-04   -0.97694E-04 16904   0.110E-01
  17 F= -.32943131E+03 E0= -.32942901E+03  d E =-.408375E-02
 curvature:  -0.63 expect dE=-0.620E-02 dE for cont linesearch -0.150E-04
 trial: gam= 1.16143 g(F)=  0.289E-02 g(S)=  0.695E-02 ort = 0.504E-03 (trialstep = 0.313E+00)
 search vector abs. value=  0.254E-01
 bond charge predicted
       N       E                     dE             d eps       ncg     rms          rms(c)
DAV:   1    -0.329433598235E+03   -0.22022E-02   -0.29885E-01 16432   0.189E+00    0.234E-01
DAV:   2    -0.329435047400E+03   -0.14492E-02   -0.21812E-02 22704   0.546E-01    0.233E-01
DAV:   3    -0.329434504460E+03    0.54294E-03   -0.84239E-03 23480   0.291E-01    0.154E-01
DAV:   4    -0.329434331593E+03    0.17287E-03   -0.23053E-03 20288   0.157E-01    0.107E-01
DAV:   5    -0.329434223892E+03    0.10770E-03   -0.15997E-03 18792   0.128E-01    0.658E-02
DAV:   6    -0.329434171458E+03    0.52434E-04   -0.72094E-04 15816   0.954E-02
  18 F= -.32943417E+03 E0= -.32943186E+03  d E =-.286006E-02
 trial-energy change:   -0.002860  1 .order   -0.002846   -0.003264   -0.002427
 step:   1.2219(harm=  1.2219)  dis= 0.01278  next Energy=  -329.437679 (dE=-0.637E-02)
 bond charge predicted
       N       E                     dE             d eps       ncg     rms          rms(c)
DAV:   1    -0.329431927516E+03    0.22964E-02   -0.25055E+00 16432   0.547E+00    0.650E-01
DAV:   2    -0.329443382957E+03   -0.11455E-01   -0.17100E-01 21808   0.154E+00    0.607E-01
DAV:   3    -0.329439477670E+03    0.39053E-02   -0.62576E-02 23568   0.827E-01    0.392E-01
DAV:   4    -0.329438489870E+03    0.98780E-03   -0.19129E-02 22448   0.447E-01    0.286E-01
DAV:   5    -0.329437563199E+03    0.92667E-03   -0.12898E-02 22384   0.350E-01    0.162E-01
DAV:   6    -0.329437215861E+03    0.34734E-03   -0.45228E-03 23352   0.217E-01    0.944E-02
DAV:   7    -0.329437161670E+03    0.54191E-04   -0.19173E-03 20592   0.141E-01    0.725E-02
DAV:   8    -0.329437095617E+03    0.66053E-04   -0.41244E-04 12992   0.775E-02
  19 F= -.32943710E+03 E0= -.32943483E+03  d E =-.578422E-02
 curvature:  -1.49 expect dE=-0.946E-02 dE for cont linesearch -0.622E-04
 trial: gam= 0.86975 g(F)=  0.474E-02 g(S)=  0.161E-02 ort =-0.103E-02 (trialstep = 0.495E+00)
 search vector abs. value=  0.238E-01
 bond charge predicted
       N       E                     dE             d eps       ncg     rms          rms(c)
DAV:   1    -0.329437172255E+03   -0.10585E-04   -0.67311E-01 16488   0.274E+00    0.208E-01
DAV:   2    -0.329439782585E+03   -0.26103E-02   -0.31533E-02 23680   0.758E-01    0.168E-01
DAV:   3    -0.329439826355E+03   -0.43770E-04   -0.43820E-03 24296   0.226E-01    0.154E-01
DAV:   4    -0.329439589465E+03    0.23689E-03   -0.15122E-03 18312   0.122E-01    0.100E-01
DAV:   5    -0.329439574562E+03    0.14903E-04   -0.69759E-04 16184   0.935E-02
  20 F= -.32943957E+03 E0= -.32943734E+03  d E =-.247894E-02
 ZBRENT: can't locate minimum, use default step
 trial-energy change:   -0.002479  1 .order   -0.002468   -0.002695   -0.002241
 step:   1.9797(harm=  2.9321)  dis= 0.02334  next Energy=  -329.445080 (dE=-0.798E-02)
 bond charge predicted
       N       E                     dE             d eps       ncg     rms          rms(c)
DAV:   1    -0.329420191751E+03    0.19398E-01   -0.60369E+00 16504   0.821E+00    0.635E-01
DAV:   2    -0.329444095648E+03   -0.23904E-01   -0.28294E-01 23536   0.227E+00    0.483E-01
DAV:   3    -0.329444452719E+03   -0.35707E-03   -0.34609E-02 24232   0.632E-01    0.416E-01
DAV:   4    -0.329442836555E+03    0.16162E-02   -0.12299E-02 22472   0.343E-01    0.285E-01
DAV:   5    -0.329442868680E+03   -0.32125E-04   -0.66460E-03 21696   0.262E-01    0.246E-01
DAV:   6    -0.329442106224E+03    0.76246E-03   -0.68228E-03 22744   0.261E-01    0.113E-01
DAV:   7    -0.329441867075E+03    0.23915E-03   -0.18166E-03 21832   0.159E-01    0.556E-02
DAV:   8    -0.329441855001E+03    0.12074E-04   -0.69198E-04 16432   0.882E-02
  21 F= -.32944186E+03 E0= -.32943979E+03  d E =-.475938E-02
 curvature:  -5.43 expect dE=-0.297E-01 dE for cont linesearch -0.181E-03
 trial: gam= 0.53480 g(F)=  0.471E-02 g(S)=  0.769E-03 ort =-0.892E-03 (trialstep = 0.792E+00)
 search vector abs. value=  0.113E-01
 bond charge predicted
       N       E                     dE             d eps       ncg     rms          rms(c)
DAV:   1    -0.329442241093E+03   -0.37402E-03   -0.93056E-01 16376   0.330E+00    0.359E-01
DAV:   2    -0.329445476824E+03   -0.32357E-02   -0.51875E-02 21352   0.887E-01    0.273E-01
DAV:   3    -0.329445198599E+03    0.27823E-03   -0.13867E-02 22880   0.412E-01    0.212E-01
DAV:   4    -0.329444783993E+03    0.41461E-03   -0.51952E-03 20968   0.225E-01    0.136E-01
DAV:   5    -0.329444721960E+03    0.62033E-04   -0.25571E-03 19944   0.170E-01    0.104E-01
DAV:   6    -0.329444547528E+03    0.17443E-03   -0.15254E-03 19848   0.135E-01    0.453E-02
DAV:   7    -0.329444523309E+03    0.24219E-04   -0.30181E-04 11816   0.765E-02
  22 F= -.32944452E+03 E0= -.32944249E+03  d E =-.266831E-02
 trial-energy change:   -0.002668  1 .order   -0.002668   -0.003957   -0.001379
 step:   1.2154(harm=  1.2154)  dis= 0.00631  next Energy=  -329.444892 (dE=-0.304E-02)
 bond charge predicted
       N       E                     dE             d eps       ncg     rms          rms(c)
DAV:   1    -0.329444060396E+03    0.48713E-03   -0.26532E-01 16016   0.177E+00    0.188E-01
DAV:   2    -0.329445119733E+03   -0.10593E-02   -0.15279E-02 21208   0.486E-01    0.147E-01
DAV:   3    -0.329445077280E+03    0.42453E-04   -0.44140E-03 21480   0.231E-01    0.120E-01
DAV:   4    -0.329444921536E+03    0.15574E-03   -0.14574E-03 19240   0.125E-01    0.697E-02
DAV:   5    -0.329444885938E+03    0.35598E-04   -0.50667E-04 13920   0.880E-02
  23 F= -.32944489E+03 E0= -.32944287E+03  d E =-.303094E-02
 curvature:  -1.38 expect dE=-0.489E-02 dE for cont linesearch -0.128E-04
 trial: gam= 0.53492 g(F)=  0.168E-02 g(S)=  0.187E-02 ort = 0.324E-03 (trialstep = 0.877E+00)
 search vector abs. value=  0.714E-02
 bond charge predicted
       N       E                     dE             d eps       ncg     rms          rms(c)
DAV:   1    -0.329445622136E+03   -0.70060E-03   -0.78004E-01 15120   0.332E+00    0.599E-01
DAV:   2    -0.329449937263E+03   -0.43151E-02   -0.88677E-02 22400   0.116E+00    0.451E-01
DAV:   3    -0.329448851626E+03    0.10856E-02   -0.45571E-02 22272   0.683E-01    0.358E-01
DAV:   4    -0.329447215736E+03    0.16359E-02   -0.14966E-02 22232   0.403E-01    0.203E-01
DAV:   5    -0.329446560430E+03    0.65531E-03   -0.69560E-03 22320   0.274E-01    0.107E-01
DAV:   6    -0.329446385654E+03    0.17478E-03   -0.23420E-03 21072   0.153E-01    0.647E-02
DAV:   7    -0.329446374370E+03    0.11284E-04   -0.93031E-04 17768   0.100E-01
  24 F= -.32944637E+03 E0= -.32944438E+03  d E =-.148843E-02
 trial-energy change:   -0.001488  1 .order   -0.001431   -0.003266    0.000403
 step:   0.7804(harm=  0.7804)  dis= 0.00458  next Energy=  -329.446340 (dE=-0.145E-02)
 bond charge predicted
       N       E                     dE             d eps       ncg     rms          rms(c)
DAV:   1    -0.329446369005E+03    0.16649E-04   -0.96102E-03 15520   0.365E-01    0.801E-02
DAV:   2    -0.329446476095E+03   -0.10709E-03   -0.18493E-03 22048   0.163E-01    0.770E-02
DAV:   3    -0.329446402867E+03    0.73228E-04   -0.10125E-03 16944   0.102E-01    0.478E-02
DAV:   4    -0.329446386127E+03    0.16740E-04   -0.21798E-04 10920   0.617E-02
  25 F= -.32944639E+03 E0= -.32944440E+03  d E =-.150019E-02
 curvature:  -0.75 expect dE=-0.161E-02 dE for cont linesearch -0.127E-05
 trial: gam= 0.68037 g(F)=  0.112E-02 g(S)=  0.104E-02 ort =-0.110E-03 (trialstep = 0.857E+00)
 search vector abs. value=  0.531E-02
 bond charge predicted
       N       E                     dE             d eps       ncg     rms          rms(c)
DAV:   1    -0.329445283258E+03    0.11196E-02   -0.56270E-01 16216   0.257E+00    0.236E-01
DAV:   2    -0.329447888816E+03   -0.26056E-02   -0.32685E-02 22768   0.722E-01    0.182E-01
DAV:   3    -0.329447907365E+03   -0.18549E-04   -0.57903E-03 23504   0.254E-01    0.155E-01
DAV:   4    -0.329447632149E+03    0.27522E-03   -0.19147E-03 19648   0.144E-01    0.950E-02
DAV:   5    -0.329447637690E+03   -0.55410E-05   -0.87653E-04 16936   0.105E-01
  26 F= -.32944764E+03 E0= -.32944567E+03  d E =-.125156E-02
 trial-energy change:   -0.001252  1 .order   -0.001273   -0.001785   -0.000762
 step:   1.4957(harm=  1.4957)  dis= 0.00969  next Energy=  -329.447943 (dE=-0.156E-02)
 bond charge predicted
       N       E                     dE             d eps       ncg     rms          rms(c)
DAV:   1    -0.329446337592E+03    0.12946E-02   -0.30986E-01 16192   0.191E+00    0.177E-01
DAV:   2    -0.329447885300E+03   -0.15477E-02   -0.18649E-02 23024   0.552E-01    0.157E-01
DAV:   3    -0.329447820648E+03    0.64652E-04   -0.44620E-03 22536   0.201E-01    0.121E-01
DAV:   4    -0.329447667254E+03    0.15339E-03   -0.10957E-03 17648   0.110E-01    0.758E-02
DAV:   5    -0.329447661603E+03    0.56506E-05   -0.64545E-04 15472   0.890E-02
  27 F= -.32944766E+03 E0= -.32944568E+03  d E =-.127548E-02
 curvature:  -1.91 expect dE=-0.203E-02 dE for cont linesearch -0.153E-04
 trial: gam= 0.59461 g(F)=  0.810E-03 g(S)=  0.256E-03 ort =-0.206E-03 (trialstep = 0.985E+00)
 search vector abs. value=  0.270E-02
 bond charge predicted
       N       E                     dE             d eps       ncg     rms          rms(c)
DAV:   1    -0.329446278306E+03    0.13889E-02   -0.40038E-01 16232   0.225E+00    0.214E-01
DAV:   2    -0.329448913493E+03   -0.26352E-02   -0.31604E-02 21272   0.684E-01    0.233E-01
DAV:   3    -0.329448395807E+03    0.51769E-03   -0.84259E-03 23368   0.314E-01    0.140E-01
DAV:   4    -0.329448230769E+03    0.16504E-03   -0.16485E-03 19624   0.141E-01    0.973E-02
DAV:   5    -0.329448151756E+03    0.79013E-04   -0.78976E-04 16272   0.985E-02
  28 F= -.32944815E+03 E0= -.32944615E+03  d E =-.490153E-03
 trial-energy change:   -0.000490  1 .order   -0.000623   -0.000930   -0.000317
 step:   1.4957(harm=  1.4957)  dis= 0.00865  next Energy=  -329.448367 (dE=-0.706E-03)
 bond charge predicted
       N       E                     dE             d eps       ncg     rms          rms(c)
DAV:   1    -0.329447545958E+03    0.68481E-03   -0.10603E-01 16248   0.115E+00    0.106E-01
DAV:   2    -0.329448175340E+03   -0.62938E-03   -0.75053E-03 21120   0.344E-01    0.105E-01
DAV:   3    -0.329448107696E+03    0.67644E-04   -0.17463E-03 20480   0.144E-01    0.664E-02
DAV:   4    -0.329448064098E+03    0.43598E-04   -0.37722E-04 13104   0.743E-02
  29 F= -.32944806E+03 E0= -.32944603E+03  d E =-.402494E-03
 curvature:  -2.14 expect dE=-0.160E-02 dE for cont linesearch -0.113E-04
 trial: gam= 0.46513 g(F)=  0.540E-03 g(S)=  0.210E-03 ort =-0.120E-03 (trialstep = 0.109E+01)
 search vector abs. value=  0.122E-02
 reached required accuracy - stopping structural energy minimisation
 writing wavefunctions
VASP is done!
