<?xml version="1.0" encoding="ISO-8859-1"?>
<modeling>
 <generator>
  <i name="program" type="string">vasp </i>
  <i name="version" type="string">5.4.4.18Apr17-6-g9f103f2a35  </i>
  <i name="subversion" type="string">(build Aug 09 2018 16:20:53) complex            parallel </i>
  <i name="platform" type="string">LinuxIFC </i>
  <i name="date" type="string">2020 04 13 </i>
  <i name="time" type="string">19:33:04 </i>
 </generator>
 <incar>
  <i type="string" name="SYSTEM"> SQS with 1 vacancy for VFE and VRV</i>
  <i type="string" name="PREC">normal</i>
  <i type="int" name="IALGO">    38</i>
  <i type="int" name="ICHARG">     2</i>
  <i type="int" name="IBRION">     2</i>
  <i type="int" name="NSW">    50</i>
  <i type="int" name="ISIF">     3</i>
  <i type="int" name="ISYM">     0</i>
  <i name="ENCUT">    600.00000000</i>
  <i type="string" name="LREAL"> Auto</i>
  <i type="int" name="ISMEAR">     1</i>
  <i name="SIGMA">      0.20000000</i>
  <v type="int" name="KPOINT_BSE">    -1     0     0     0</v>
  <i type="string" name="GGA"> PS</i>
 </incar>
 <structure name="primitive_cell" >
  <crystal>
   <varray name="basis" >
    <v>      -3.19000000      -3.19000000      -3.19000000 </v>
    <v>       1.59500000       1.59500000      -7.97500000 </v>
    <v>       7.97500000      -7.97500000      -1.59500000 </v>
   </varray>
   <i name="volume">    486.92638500 </i>
   <varray name="rec_basis" >
    <v>      -0.13584117      -0.12539185      -0.05224660 </v>
    <v>       0.04179728       0.06269592      -0.10449321 </v>
    <v>       0.06269592      -0.06269592       0.00000000 </v>
   </varray>
  </crystal>
  <varray name="positions" >
   <v>      -0.03333333      -0.06666667       0.40000000 </v>
   <v>       0.30000000      -0.40000000       0.40000000 </v>
   <v>      -0.10000000      -0.20000000       0.20000000 </v>
   <v>       0.06666667       0.13333333       0.20000000 </v>
   <v>       0.46666667      -0.06666667       0.40000000 </v>
   <v>      -0.13333333      -0.26666667      -0.40000000 </v>
   <v>       0.03333333       0.06666667      -0.40000000 </v>
   <v>      -0.36666667       0.26666667       0.40000000 </v>
   <v>       0.40000000      -0.20000000       0.20000000 </v>
   <v>      -0.20000000      -0.40000000       0.40000000 </v>
   <v>      -0.43333333       0.13333333       0.20000000 </v>
   <v>       0.36666667      -0.26666667      -0.40000000 </v>
   <v>       0.13333333       0.26666667       0.40000000 </v>
   <v>      -0.46666667       0.06666667      -0.40000000 </v>
   <v>       0.23333333       0.46666667       0.20000000 </v>
   <v>       0.20000000       0.40000000      -0.40000000 </v>
   <v>       0.00000000       0.00000000       0.00000000 </v>
   <v>      -0.06666667      -0.13333333      -0.20000000 </v>
   <v>      -0.30000000       0.40000000      -0.40000000 </v>
   <v>      -0.26666667       0.46666667       0.20000000 </v>
   <v>       0.33333333      -0.33333333       0.00000000 </v>
   <v>       0.43333333      -0.13333333      -0.20000000 </v>
   <v>      -0.50000000       0.00000000       0.00000000 </v>
   <v>       0.26666667      -0.46666667      -0.20000000 </v>
   <v>      -0.33333333       0.33333333       0.00000000 </v>
   <v>      -0.16666667      -0.33333333       0.00000000 </v>
   <v>      -0.23333333      -0.46666667      -0.20000000 </v>
   <v>       0.16666667       0.33333333       0.00000000 </v>
   <v>       0.10000000       0.20000000      -0.20000000 </v>
  </varray>
 </structure>
 <varray name="primitive_index" >
  <v type="int" >        1 </v>
  <v type="int" >       18 </v>
  <v type="int" >        7 </v>
  <v type="int" >       24 </v>
  <v type="int" >       20 </v>
  <v type="int" >       19 </v>
  <v type="int" >        6 </v>
  <v type="int" >        2 </v>
  <v type="int" >       16 </v>
  <v type="int" >        8 </v>
  <v type="int" >       15 </v>
  <v type="int" >       11 </v>
  <v type="int" >       12 </v>
  <v type="int" >       27 </v>
  <v type="int" >       29 </v>
  <v type="int" >       23 </v>
  <v type="int" >        4 </v>
  <v type="int" >       14 </v>
  <v type="int" >       26 </v>
  <v type="int" >        9 </v>
  <v type="int" >       28 </v>
  <v type="int" >       17 </v>
  <v type="int" >        3 </v>
  <v type="int" >       22 </v>
  <v type="int" >       10 </v>
  <v type="int" >       13 </v>
  <v type="int" >       25 </v>
  <v type="int" >       21 </v>
  <v type="int" >        5 </v>
 </varray>
 <kpoints>
  <generation param="Gamma">
   <v type="int" name="divisions">       5        5        5 </v>
   <v name="usershift">      0.00000000       0.00000000       0.00000000 </v>
   <v name="genvec1">      0.20000000      -0.00000000      -0.00000000 </v>
   <v name="genvec2">      0.00000000       0.20000000       0.00000000 </v>
   <v name="genvec3">      0.00000000       0.00000000       0.20000000 </v>
   <v name="shift">      0.00000000       0.00000000       0.00000000 </v>
  </generation>
  <varray name="kpointlist" >
   <v>       0.00000000       0.00000000       0.00000000 </v>
   <v>       0.20000000      -0.00000000       0.00000000 </v>
   <v>       0.40000000      -0.00000000       0.00000000 </v>
   <v>       0.00000000       0.20000000       0.00000000 </v>
   <v>       0.20000000       0.20000000      -0.00000000 </v>
   <v>       0.40000000       0.20000000      -0.00000000 </v>
   <v>      -0.40000000       0.20000000      -0.00000000 </v>
   <v>      -0.20000000       0.20000000       0.00000000 </v>
   <v>       0.00000000       0.40000000       0.00000000 </v>
   <v>       0.20000000       0.40000000       0.00000000 </v>
   <v>       0.40000000       0.40000000      -0.00000000 </v>
   <v>      -0.40000000       0.40000000       0.00000000 </v>
   <v>      -0.20000000       0.40000000       0.00000000 </v>
   <v>       0.00000000       0.00000000       0.20000000 </v>
   <v>       0.20000000      -0.00000000       0.20000000 </v>
   <v>       0.40000000       0.00000000       0.20000000 </v>
   <v>      -0.40000000       0.00000000       0.20000000 </v>
   <v>      -0.20000000       0.00000000       0.20000000 </v>
   <v>       0.00000000       0.20000000       0.20000000 </v>
   <v>       0.20000000       0.20000000       0.20000000 </v>
   <v>       0.40000000       0.20000000       0.20000000 </v>
   <v>      -0.40000000       0.20000000       0.20000000 </v>
   <v>      -0.20000000       0.20000000       0.20000000 </v>
   <v>       0.00000000       0.40000000       0.20000000 </v>
   <v>       0.20000000       0.40000000       0.20000000 </v>
   <v>       0.40000000       0.40000000       0.20000000 </v>
   <v>      -0.40000000       0.40000000       0.20000000 </v>
   <v>      -0.20000000       0.40000000       0.20000000 </v>
   <v>       0.00000000      -0.40000000       0.20000000 </v>
   <v>       0.20000000      -0.40000000       0.20000000 </v>
   <v>       0.40000000      -0.40000000       0.20000000 </v>
   <v>      -0.40000000      -0.40000000       0.20000000 </v>
   <v>      -0.20000000      -0.40000000       0.20000000 </v>
   <v>       0.00000000      -0.20000000       0.20000000 </v>
   <v>       0.20000000      -0.20000000       0.20000000 </v>
   <v>       0.40000000      -0.20000000       0.20000000 </v>
   <v>      -0.40000000      -0.20000000       0.20000000 </v>
   <v>      -0.20000000      -0.20000000       0.20000000 </v>
   <v>       0.00000000       0.00000000       0.40000000 </v>
   <v>       0.20000000      -0.00000000       0.40000000 </v>
   <v>       0.40000000      -0.00000000       0.40000000 </v>
   <v>      -0.40000000       0.00000000       0.40000000 </v>
   <v>      -0.20000000       0.00000000       0.40000000 </v>
   <v>      -0.00000000       0.20000000       0.40000000 </v>
   <v>       0.20000000       0.20000000       0.40000000 </v>
   <v>       0.40000000       0.20000000       0.40000000 </v>
   <v>      -0.40000000       0.20000000       0.40000000 </v>
   <v>      -0.20000000       0.20000000       0.40000000 </v>
   <v>       0.00000000       0.40000000       0.40000000 </v>
   <v>       0.20000000       0.40000000       0.40000000 </v>
   <v>       0.40000000       0.40000000       0.40000000 </v>
   <v>      -0.40000000       0.40000000       0.40000000 </v>
   <v>      -0.20000000       0.40000000       0.40000000 </v>
   <v>       0.00000000      -0.40000000       0.40000000 </v>
   <v>       0.20000000      -0.40000000       0.40000000 </v>
   <v>       0.40000000      -0.40000000       0.40000000 </v>
   <v>      -0.40000000      -0.40000000       0.40000000 </v>
   <v>      -0.20000000      -0.40000000       0.40000000 </v>
   <v>       0.00000000      -0.20000000       0.40000000 </v>
   <v>       0.20000000      -0.20000000       0.40000000 </v>
   <v>       0.40000000      -0.20000000       0.40000000 </v>
   <v>      -0.40000000      -0.20000000       0.40000000 </v>
   <v>      -0.20000000      -0.20000000       0.40000000 </v>
  </varray>
  <varray name="weights" >
   <v>       0.00800000 </v>
   <v>       0.01600000 </v>
   <v>       0.01600000 </v>
   <v>       0.01600000 </v>
   <v>       0.01600000 </v>
   <v>       0.01600000 </v>
   <v>       0.01600000 </v>
   <v>       0.01600000 </v>
   <v>       0.01600000 </v>
   <v>       0.01600000 </v>
   <v>       0.01600000 </v>
   <v>       0.01600000 </v>
   <v>       0.01600000 </v>
   <v>       0.01600000 </v>
   <v>       0.01600000 </v>
   <v>       0.01600000 </v>
   <v>       0.01600000 </v>
   <v>       0.01600000 </v>
   <v>       0.01600000 </v>
   <v>       0.01600000 </v>
   <v>       0.01600000 </v>
   <v>       0.01600000 </v>
   <v>       0.01600000 </v>
   <v>       0.01600000 </v>
   <v>       0.01600000 </v>
   <v>       0.01600000 </v>
   <v>       0.01600000 </v>
   <v>       0.01600000 </v>
   <v>       0.01600000 </v>
   <v>       0.01600000 </v>
   <v>       0.01600000 </v>
   <v>       0.01600000 </v>
   <v>       0.01600000 </v>
   <v>       0.01600000 </v>
   <v>       0.01600000 </v>
   <v>       0.01600000 </v>
   <v>       0.01600000 </v>
   <v>       0.01600000 </v>
   <v>       0.01600000 </v>
   <v>       0.01600000 </v>
   <v>       0.01600000 </v>
   <v>       0.01600000 </v>
   <v>       0.01600000 </v>
   <v>       0.01600000 </v>
   <v>       0.01600000 </v>
   <v>       0.01600000 </v>
   <v>       0.01600000 </v>
   <v>       0.01600000 </v>
   <v>       0.01600000 </v>
   <v>       0.01600000 </v>
   <v>       0.01600000 </v>
   <v>       0.01600000 </v>
   <v>       0.01600000 </v>
   <v>       0.01600000 </v>
   <v>       0.01600000 </v>
   <v>       0.01600000 </v>
   <v>       0.01600000 </v>
   <v>       0.01600000 </v>
   <v>       0.01600000 </v>
   <v>       0.01600000 </v>
   <v>       0.01600000 </v>
   <v>       0.01600000 </v>
   <v>       0.01600000 </v>
  </varray>
 </kpoints>
 <parameters>
  <separator name="general" >
   <i type="string" name="SYSTEM">SQS with 1 vacancy for VFE and VRV</i>
   <i type="logical" name="LCOMPAT"> F  </i>
  </separator>
  <separator name="electronic" >
   <i type="string" name="PREC">normal</i>
   <i name="ENMAX">    600.00000000</i>
   <i name="ENAUG">    455.65900000</i>
   <i name="EDIFF">      0.00010000</i>
   <i type="int" name="IALGO">    38</i>
   <i type="int" name="IWAVPR">    11</i>
   <i type="int" name="NBANDS">   120</i>
   <i name="NELECT">    198.00000000</i>
   <i type="int" name="TURBO">     0</i>
   <i type="int" name="IRESTART">     0</i>
   <i type="int" name="NREBOOT">     0</i>
   <i type="int" name="NMIN">     0</i>
   <i name="EREF">      0.00000000</i>
   <separator name="electronic smearing" >
    <i type="int" name="ISMEAR">     1</i>
    <i name="SIGMA">      0.20000000</i>
    <i name="KSPACING">      0.50000000</i>
    <i type="logical" name="KGAMMA"> T  </i>
   </separator>
   <separator name="electronic projectors" >
    <i type="logical" name="LREAL"> T  </i>
    <v name="ROPT">     -0.00050000     -0.00050000     -0.00050000     -0.00050000     -0.00050000</v>
    <i type="int" name="LMAXPAW">  -100</i>
    <i type="int" name="LMAXMIX">     2</i>
    <i type="logical" name="NLSPLINE"> F  </i>
   </separator>
   <separator name="electronic startup" >
    <i type="int" name="ISTART">     0</i>
    <i type="int" name="ICHARG">     2</i>
    <i type="int" name="INIWAV">     1</i>
   </separator>
   <separator name="electronic spin" >
    <i type="int" name="ISPIN">     1</i>
    <i type="logical" name="LNONCOLLINEAR"> F  </i>
    <v name="MAGMOM">      1.00000000      1.00000000      1.00000000      1.00000000      1.00000000      1.00000000      1.00000000      1.00000000      1.00000000      1.00000000      1.00000000      1.00000000      1.00000000      1.00000000      1.00000000      1.00000000      1.00000000      1.00000000      1.00000000      1.00000000
      1.00000000      1.00000000      1.00000000      1.00000000      1.00000000      1.00000000      1.00000000      1.00000000      1.00000000</v>
    <i name="NUPDOWN">     -1.00000000</i>
    <i type="logical" name="LSORBIT"> F  </i>
    <v name="SAXIS">      0.00000000      0.00000000      1.00000000</v>
    <i type="logical" name="LSPIRAL"> F  </i>
    <v name="QSPIRAL">      0.00000000      0.00000000      0.00000000</v>
    <i type="logical" name="LZEROZ"> F  </i>
   </separator>
   <separator name="electronic exchange-correlation" >
    <i type="logical" name="LASPH"> F  </i>
    <i type="logical" name="LMETAGGA"> F  </i>
   </separator>
   <separator name="electronic convergence" >
    <i type="int" name="NELM">    60</i>
    <i type="int" name="NELMDL">    -5</i>
    <i type="int" name="NELMIN">     2</i>
    <i name="ENINI">    600.00000000</i>
    <separator name="electronic convergence detail" >
     <i type="logical" name="LDIAG"> T  </i>
     <i type="logical" name="LSUBROT"> F  </i>
     <i name="WEIMIN">      0.00100000</i>
     <i name="EBREAK">      0.00000021</i>
     <i name="DEPER">      0.30000000</i>
     <i type="int" name="NRMM">     4</i>
     <i name="TIME">      0.40000000</i>
    </separator>
   </separator>
   <separator name="electronic mixer" >
    <i name="AMIX">      0.40000000</i>
    <i name="BMIX">      1.00000000</i>
    <i name="AMIN">      0.10000000</i>
    <i name="AMIX_MAG">      1.60000000</i>
    <i name="BMIX_MAG">      1.00000000</i>
    <separator name="electronic mixer details" >
     <i type="int" name="IMIX">     4</i>
     <i type="logical" name="MIXFIRST"> F  </i>
     <i type="int" name="MAXMIX">   -45</i>
     <i name="WC">    100.00000000</i>
     <i type="int" name="INIMIX">     1</i>
     <i type="int" name="MIXPRE">     1</i>
     <i type="int" name="MREMOVE">     5</i>
    </separator>
   </separator>
   <separator name="electronic dipolcorrection" >
    <i type="logical" name="LDIPOL"> F  </i>
    <i type="logical" name="LMONO"> F  </i>
    <i type="int" name="IDIPOL">     0</i>
    <i name="EPSILON">      1.00000000</i>
    <v name="DIPOL">   -100.00000000   -100.00000000   -100.00000000</v>
    <i name="EFIELD">      0.00000000</i>
   </separator>
  </separator>
  <separator name="grids" >
   <i type="int" name="NGX">    36</i>
   <i type="int" name="NGY">    50</i>
   <i type="int" name="NGZ">    70</i>
   <i type="int" name="NGXF">    72</i>
   <i type="int" name="NGYF">   100</i>
   <i type="int" name="NGZF">   140</i>
   <i type="logical" name="ADDGRID"> F  </i>
  </separator>
  <separator name="ionic" >
   <i type="int" name="NSW">    50</i>
   <i type="int" name="IBRION">     2</i>
   <i type="int" name="MDALGO">     0</i>
   <i type="int" name="ISIF">     3</i>
   <i name="PSTRESS">      0.00000000</i>
   <i name="EDIFFG">      0.00100000</i>
   <i type="int" name="NFREE">     1</i>
   <i name="POTIM">      0.50000000</i>
   <i name="SMASS">     -3.00000000</i>
   <i name="SCALEE">      1.00000000</i>
  </separator>
  <separator name="ionic md" >
   <i name="TEBEG">      0.00010000</i>
   <i name="TEEND">      0.00010000</i>
   <i type="int" name="NBLOCK">     1</i>
   <i type="int" name="KBLOCK">    50</i>
   <i type="int" name="NPACO">   256</i>
   <i name="APACO">     16.00000000</i>
  </separator>
  <separator name="symmetry" >
   <i type="int" name="ISYM">     0</i>
   <i name="SYMPREC">      0.00001000</i>
  </separator>
  <separator name="dos" >
   <i type="int" name="LORBIT">     0</i>
   <v name="RWIGS">     -1.00000000     -1.00000000     -1.00000000     -1.00000000     -1.00000000</v>
   <i type="int" name="NEDOS">   301</i>
   <i name="EMIN">     10.00000000</i>
   <i name="EMAX">    -10.00000000</i>
   <i name="EFERMI">      0.00000000</i>
  </separator>
  <separator name="writing" >
   <i type="int" name="NWRITE">     2</i>
   <i type="logical" name="LWAVE"> T  </i>
   <i type="logical" name="LDOWNSAMPLE"> F  </i>
   <i type="logical" name="LCHARG"> T  </i>
   <i type="logical" name="LPARD"> F  </i>
   <i type="logical" name="LVTOT"> F  </i>
   <i type="logical" name="LVHAR"> F  </i>
   <i type="logical" name="LELF"> F  </i>
   <i type="logical" name="LOPTICS"> F  </i>
   <v name="STM">      0.00000000      0.00000000      0.00000000      0.00000000      0.00000000      0.00000000      0.00000000</v>
  </separator>
  <separator name="performance" >
   <i type="int" name="NPAR">     8</i>
   <i type="int" name="NSIM">     4</i>
   <i type="int" name="NBLK">    -1</i>
   <i type="logical" name="LPLANE"> T  </i>
   <i type="logical" name="LSCALAPACK"> T  </i>
   <i type="logical" name="LSCAAWARE"> F  </i>
   <i type="logical" name="LSCALU"> F  </i>
   <i type="logical" name="LASYNC"> F  </i>
   <i type="logical" name="LORBITALREAL"> F  </i>
  </separator>
  <separator name="miscellaneous" >
   <i type="int" name="IDIOT">     3</i>
   <i type="int" name="ISPECIAL">     0</i>
   <i type="logical" name="LMUSIC"> F  </i>
   <v name="POMASS">     92.91000000     95.94000000    180.94800000     47.88000000    183.85000000</v>
   <v name="DARWINR">      0.00000000      0.00000000      0.00000000      0.00000000      0.00000000</v>
   <v name="DARWINV">      1.00000000      1.00000000      1.00000000      1.00000000      1.00000000</v>
   <i type="logical" name="LCORR"> T  </i>
  </separator>
  <i type="logical" name="GGA_COMPAT"> T  </i>
  <i type="logical" name="LBERRY"> F  </i>
  <i type="int" name="ICORELEVEL">     0</i>
  <i type="logical" name="LDAU"> F  </i>
  <i type="int" name="I_CONSTRAINED_M">     0</i>
  <separator name="electronic exchange-correlation" >
   <i type="string" name="GGA">PS</i>
   <i type="int" name="VOSKOWN">     0</i>
   <i type="logical" name="LHFCALC"> F  </i>
   <i type="string" name="PRECFOCK"></i>
   <i type="logical" name="LSYMGRAD"> F  </i>
   <i type="logical" name="LHFONE"> F  </i>
   <i type="logical" name="LRHFCALC"> F  </i>
   <i type="logical" name="LTHOMAS"> F  </i>
   <i type="logical" name="LMODELHF"> F  </i>
   <i name="ENCUT4O">     -1.00000000</i>
   <i type="int" name="EXXOEP">     0</i>
   <i type="int" name="FOURORBIT">     0</i>
   <i name="AEXX">      0.00000000</i>
   <i name="HFALPHA">      0.00000000</i>
   <i name="MCALPHA">      0.00000000</i>
   <i name="ALDAX">      1.00000000</i>
   <i name="AGGAX">      1.00000000</i>
   <i name="ALDAC">      1.00000000</i>
   <i name="AGGAC">      1.00000000</i>
   <i type="int" name="NKREDX">     1</i>
   <i type="int" name="NKREDY">     1</i>
   <i type="int" name="NKREDZ">     1</i>
   <i type="logical" name="SHIFTRED"> F  </i>
   <i type="logical" name="ODDONLY"> F  </i>
   <i type="logical" name="EVENONLY"> F  </i>
   <i type="int" name="LMAXFOCK">     0</i>
   <i type="int" name="NMAXFOCKAE">     0</i>
   <i type="logical" name="LFOCKAEDFT"> F  </i>
   <i name="HFSCREEN">      0.00000000</i>
   <i name="HFSCREENC">      0.00000000</i>
   <i type="int" name="NBANDSGWLOW">     0</i>
  </separator>
  <separator name="vdW DFT" >
   <i type="logical" name="LUSE_VDW"> F  </i>
   <i name="Zab_VDW">     -0.84910000</i>
   <i name="PARAM1">      0.12340000</i>
   <i name="PARAM2">      1.00000000</i>
   <i name="PARAM3">      0.00000000</i>
  </separator>
  <separator name="model GW" >
   <i type="int" name="MODEL_GW">     0</i>
   <i name="MODEL_EPS0">     10.07433900</i>
   <i name="MODEL_ALPHA">      1.00000000</i>
  </separator>
  <separator name="linear response parameters" >
   <i type="logical" name="LEPSILON"> F  </i>
   <i type="logical" name="LRPA"> F  </i>
   <i type="logical" name="LNABLA"> F  </i>
   <i type="logical" name="LVEL"> F  </i>
   <i type="int" name="KINTER">     0</i>
   <i name="CSHIFT">      0.10000000</i>
   <i name="OMEGAMAX">     -1.00000000</i>
   <i name="DEG_THRESHOLD">      0.00200000</i>
   <i name="RTIME">     -0.10000000</i>
   <i name="WPLASMAI">      0.00000000</i>
   <v name="DFIELD">      0.00000000      0.00000000      0.00000000</v>
   <v name="WPLASMA">      0.00000000      0.00000000      0.00000000      0.00000000      0.00000000      0.00000000      0.00000000      0.00000000      0.00000000</v>
  </separator>
  <separator name="orbital magnetization" >
   <i type="logical" name="NUCIND"> F  </i>
   <v name="MAGPOS">      0.00000000      0.00000000      0.00000000</v>
   <i type="logical" name="LNICSALL"> T  </i>
   <i type="logical" name="ORBITALMAG"> F  </i>
   <i type="logical" name="LMAGBLOCH"> F  </i>
   <i type="logical" name="LCHIMAG"> F  </i>
   <i type="logical" name="LGAUGE"> T  </i>
   <i type="int" name="MAGATOM">     0</i>
   <v name="MAGDIPOL">      0.00000000      0.00000000      0.00000000</v>
   <v name="AVECCONST">      0.00000000      0.00000000      0.00000000</v>
  </separator>
  <separator name="response functions" >
   <i type="logical" name="LADDER"> F  </i>
   <i type="logical" name="LRPAFORCE"> F  </i>
   <i type="logical" name="LFXC"> F  </i>
   <i type="logical" name="LHARTREE"> T  </i>
   <i type="int" name="IBSE">     0</i>
   <v type="int" name="KPOINT">    -1     0     0     0</v>
   <i type="logical" name="LTCTE"> F  </i>
   <i type="logical" name="LTETE"> F  </i>
   <i type="logical" name="LTRIPLET"> F  </i>
   <i type="logical" name="LFXCEPS"> F  </i>
   <i type="logical" name="LFXHEG"> F  </i>
   <i type="int" name="NATURALO">     2</i>
   <i type="logical" name="L2ORDER"> F  </i>
   <i type="logical" name="LMP2LT"> F  </i>
   <i type="logical" name="LUSEW"> F  </i>
   <i name="ENCUTGW">     -2.00000000</i>
   <i name="ENCUTGWSOFT">     -2.00000000</i>
   <i name="ENCUTLF">     -1.00000000</i>
   <i type="int" name="LMAXMP2">    -1</i>
   <i name="SCISSOR">      0.00000000</i>
   <i type="int" name="NOMEGA">     0</i>
   <i type="int" name="NOMEGAR">     0</i>
   <i type="int" name="NBANDSGW">    -1</i>
   <i type="int" name="NBANDSO">    -1</i>
   <i type="int" name="NBANDSV">    -1</i>
   <i type="int" name="NELM">     1</i>
   <i type="int" name="NELMHF">     1</i>
   <i type="int" name="DIM">     3</i>
   <i type="int" name="ANTIRES">     0</i>
   <i name="OMEGAMAX">    -30.00000000</i>
   <i name="OMEGAMIN">    -30.00000000</i>
   <i name="OMEGATL">   -200.00000000</i>
   <i type="int" name="OMEGAGRID">   140</i>
   <i name="CSHIFT">     -0.10000000</i>
   <i type="logical" name="SELFENERGY"> F  </i>
   <i type="logical" name="LSPECTRAL"> F  </i>
   <i type="logical" name="LSPECTRALGW"> F  </i>
   <i type="logical" name="LSINGLES"> F  </i>
   <i type="logical" name="LFERMIGW"> F  </i>
   <i type="logical" name="ODDONLYGW"> F  </i>
   <i type="logical" name="EVENONLYGW"> F  </i>
   <i type="int" name="NKREDLFX">     1</i>
   <i type="int" name="NKREDLFY">     1</i>
   <i type="int" name="NKREDLFZ">     1</i>
   <i type="int" name="MAXMEM">  2800</i>
   <i type="int" name="TELESCOPE">     0</i>
   <i type="int" name="TAUPAR">     1</i>
   <i type="int" name="OMEGAPAR">    -1</i>
   <i name="LAMBDA">      1.00000000</i>
  </separator>
  <separator name="External order field" >
   <i name="OFIELD_KAPPA">      0.00000000</i>
   <v name="OFIELD_K">      0.00000000      0.00000000      0.00000000</v>
   <i name="OFIELD_Q6_NEAR">      0.00000000</i>
   <i name="OFIELD_Q6_FAR">      0.00000000</i>
   <i name="OFIELD_A">      0.00000000</i>
  </separator>
  <separator name="solvation model" >
   <i type="logical" name="LSOL"> F  </i>
  </separator>
 </parameters>
 <atominfo>
  <atoms>      29 </atoms>
  <types>       5 </types>
  <array name="atoms" >
   <dimension dim="1">ion</dimension>
   <field type="string">element</field>
   <field type="int">atomtype</field>
   <set>
    <rc><c>Nb</c><c>   1</c></rc>
    <rc><c>Nb</c><c>   1</c></rc>
    <rc><c>Nb</c><c>   1</c></rc>
    <rc><c>Nb</c><c>   1</c></rc>
    <rc><c>Nb</c><c>   1</c></rc>
    <rc><c>Nb</c><c>   1</c></rc>
    <rc><c>Mo</c><c>   2</c></rc>
    <rc><c>Mo</c><c>   2</c></rc>
    <rc><c>Mo</c><c>   2</c></rc>
    <rc><c>Mo</c><c>   2</c></rc>
    <rc><c>Mo</c><c>   2</c></rc>
    <rc><c>Mo</c><c>   2</c></rc>
    <rc><c>Ta</c><c>   3</c></rc>
    <rc><c>Ta</c><c>   3</c></rc>
    <rc><c>Ta</c><c>   3</c></rc>
    <rc><c>Ta</c><c>   3</c></rc>
    <rc><c>Ta</c><c>   3</c></rc>
    <rc><c>Ta</c><c>   3</c></rc>
    <rc><c>Ti</c><c>   4</c></rc>
    <rc><c>Ti</c><c>   4</c></rc>
    <rc><c>Ti</c><c>   4</c></rc>
    <rc><c>Ti</c><c>   4</c></rc>
    <rc><c>Ti</c><c>   4</c></rc>
    <rc><c>Ti</c><c>   4</c></rc>
    <rc><c>W </c><c>   5</c></rc>
    <rc><c>W </c><c>   5</c></rc>
    <rc><c>W </c><c>   5</c></rc>
    <rc><c>W </c><c>   5</c></rc>
    <rc><c>W </c><c>   5</c></rc>
   </set>
  </array>
  <array name="atomtypes" >
   <dimension dim="1">type</dimension>
   <field type="int">atomspertype</field>
   <field type="string">element</field>
   <field>mass</field>
   <field>valence</field>
   <field type="string">pseudopotential</field>
   <set>
    <rc><c>   6</c><c>Nb</c><c>     92.91000000</c><c>     13.00000000</c><c>  PAW_PBE Nb_sv 25May2007               </c></rc>
    <rc><c>   6</c><c>Mo</c><c>     95.94000000</c><c>      6.00000000</c><c>  PAW_PBE Mo 08Apr2002                  </c></rc>
    <rc><c>   6</c><c>Ta</c><c>    180.94800000</c><c>      5.00000000</c><c>  PAW_PBE Ta 17Jan2003                  </c></rc>
    <rc><c>   6</c><c>Ti</c><c>     47.88000000</c><c>      4.00000000</c><c>  PAW_PBE Ti 08Apr2002                  </c></rc>
    <rc><c>   5</c><c>W </c><c>    183.85000000</c><c>      6.00000000</c><c>  PAW_PBE W 08Apr2002                   </c></rc>
   </set>
  </array>
 </atominfo>
 <structure name="initialpos" >
  <crystal>
   <varray name="basis" >
    <v>      -3.19000000      -3.19000000      -3.19000000 </v>
    <v>       1.59500000       1.59500000      -7.97500000 </v>
    <v>       7.97500000      -7.97500000      -1.59500000 </v>
   </varray>
   <i name="volume">    486.92638500 </i>
   <varray name="rec_basis" >
    <v>      -0.13584117      -0.12539185      -0.05224660 </v>
    <v>       0.04179728       0.06269592      -0.10449321 </v>
    <v>       0.06269592      -0.06269592       0.00000000 </v>
   </varray>
  </crystal>
  <varray name="positions" >
   <v>       0.96666667       0.93333333       0.40000000 </v>
   <v>       0.63333333       0.26666667       0.40000000 </v>
   <v>       0.50000000       0.00000000       0.00000000 </v>
   <v>       0.00000000       0.00000000       0.00000000 </v>
   <v>       0.10000000       0.20000000       0.80000000 </v>
   <v>       0.03333333       0.06666667       0.60000000 </v>
   <v>       0.90000000       0.80000000       0.20000000 </v>
   <v>       0.80000000       0.60000000       0.40000000 </v>
   <v>       0.73333333       0.46666667       0.20000000 </v>
   <v>       0.66666667       0.33333333       0.00000000 </v>
   <v>       0.36666667       0.73333333       0.60000000 </v>
   <v>       0.13333333       0.26666667       0.40000000 </v>
   <v>       0.83333333       0.66666667       0.00000000 </v>
   <v>       0.93333333       0.86666667       0.80000000 </v>
   <v>       0.56666667       0.13333333       0.20000000 </v>
   <v>       0.40000000       0.80000000       0.20000000 </v>
   <v>       0.43333333       0.86666667       0.80000000 </v>
   <v>       0.30000000       0.60000000       0.40000000 </v>
   <v>       0.86666667       0.73333333       0.60000000 </v>
   <v>       0.46666667       0.93333333       0.40000000 </v>
   <v>       0.16666667       0.33333333       0.00000000 </v>
   <v>       0.26666667       0.53333333       0.80000000 </v>
   <v>       0.20000000       0.40000000       0.60000000 </v>
   <v>       0.06666667       0.13333333       0.20000000 </v>
   <v>       0.76666667       0.53333333       0.80000000 </v>
   <v>       0.70000000       0.40000000       0.60000000 </v>
   <v>       0.53333333       0.06666667       0.60000000 </v>
   <v>       0.33333333       0.66666667       0.00000000 </v>
   <v>       0.23333333       0.46666667       0.20000000 </v>
  </varray>
 </structure>
 <calculation>
  <scstep>
   <time name="dav">   18.33   18.54</time>
   <time name="total">   18.38   18.59</time>
   <energy>
    <i name="alphaZ">   1291.39724513 </i>
    <i name="ewald"> -11627.44759426 </i>
    <i name="hartreedc">  -3048.00645654 </i>
    <i name="XCdc">   -857.51516117 </i>
    <i name="pawpsdc">  12063.15090526 </i>
    <i name="pawaedc"> -10557.55889498 </i>
    <i name="eentropy">     -0.00071831 </i>
    <i name="bandstr">   1879.25727536 </i>
    <i name="atom">  13006.21773402 </i>
    <i name="e_fr_energy">   2149.49433453 </i>
    <i name="e_wo_entrp">   2149.49505284 </i>
    <i name="e_0_energy">   2149.49457396 </i>
   </energy>
  </scstep>
  <scstep>
   <time name="dav">   18.29   18.32</time>
   <time name="total">   18.29   18.32</time>
   <energy>
    <i name="e_fr_energy">     71.57568728 </i>
    <i name="e_wo_entrp">     71.56790126 </i>
    <i name="e_0_energy">     71.57309194 </i>
   </energy>
  </scstep>
  <scstep>
   <time name="dav">   28.55   28.59</time>
   <time name="total">   28.55   28.59</time>
   <energy>
    <i name="e_fr_energy">   -300.11193839 </i>
    <i name="e_wo_entrp">   -300.10958173 </i>
    <i name="e_0_energy">   -300.11115283 </i>
   </energy>
  </scstep>
  <scstep>
   <time name="dav">   25.69   25.74</time>
   <time name="total">   25.70   25.74</time>
   <energy>
    <i name="e_fr_energy">   -345.75497051 </i>
    <i name="e_wo_entrp">   -345.74828859 </i>
    <i name="e_0_energy">   -345.75274320 </i>
   </energy>
  </scstep>
  <scstep>
   <time name="dav">   30.95   31.10</time>
   <time name="total">   31.52   31.68</time>
   <energy>
    <i name="e_fr_energy">   -350.89994855 </i>
    <i name="e_wo_entrp">   -350.89600051 </i>
    <i name="e_0_energy">   -350.89863254 </i>
   </energy>
  </scstep>
  <scstep>
   <time name="dav">   23.80   23.84</time>
   <time name="total">   24.40   24.44</time>
   <energy>
    <i name="e_fr_energy">   -342.88165370 </i>
    <i name="e_wo_entrp">   -342.87503345 </i>
    <i name="e_0_energy">   -342.87944695 </i>
   </energy>
  </scstep>
  <scstep>
   <time name="dav">   23.57   23.60</time>
   <time name="total">   24.18   24.22</time>
   <energy>
    <i name="e_fr_energy">   -356.72041445 </i>
    <i name="e_wo_entrp">   -356.72097226 </i>
    <i name="e_0_energy">   -356.72060039 </i>
   </energy>
  </scstep>
  <scstep>
   <time name="dav">   25.14   25.18</time>
   <time name="total">   25.75   25.79</time>
   <energy>
    <i name="e_fr_energy">   -346.63387909 </i>
    <i name="e_wo_entrp">   -346.64286876 </i>
    <i name="e_0_energy">   -346.63687565 </i>
   </energy>
  </scstep>
  <scstep>
   <time name="dav">   24.10   24.13</time>
   <time name="total">   24.70   24.74</time>
   <energy>
    <i name="e_fr_energy">   -334.13810115 </i>
    <i name="e_wo_entrp">   -334.12969865 </i>
    <i name="e_0_energy">   -334.13530032 </i>
   </energy>
  </scstep>
  <scstep>
   <time name="dav">   24.96   25.00</time>
   <time name="total">   25.58   25.62</time>
   <energy>
    <i name="e_fr_energy">   -330.46304022 </i>
    <i name="e_wo_entrp">   -330.46301716 </i>
    <i name="e_0_energy">   -330.46303253 </i>
   </energy>
  </scstep>
  <scstep>
   <time name="dav">   25.80   25.84</time>
   <time name="total">   26.42   26.46</time>
   <energy>
    <i name="e_fr_energy">   -329.16848223 </i>
    <i name="e_wo_entrp">   -329.15861086 </i>
    <i name="e_0_energy">   -329.16519178 </i>
   </energy>
  </scstep>
  <scstep>
   <time name="dav">   25.51   25.56</time>
   <time name="total">   26.12   26.16</time>
   <energy>
    <i name="e_fr_energy">   -328.75076678 </i>
    <i name="e_wo_entrp">   -328.74122887 </i>
    <i name="e_0_energy">   -328.74758748 </i>
   </energy>
  </scstep>
  <scstep>
   <time name="dav">   24.49   24.52</time>
   <time name="total">   25.10   25.14</time>
   <energy>
    <i name="e_fr_energy">   -328.65144345 </i>
    <i name="e_wo_entrp">   -328.63886359 </i>
    <i name="e_0_energy">   -328.64725017 </i>
   </energy>
  </scstep>
  <scstep>
   <time name="dav">   25.15   25.19</time>
   <time name="total">   25.76   25.79</time>
   <energy>
    <i name="e_fr_energy">   -328.57370529 </i>
    <i name="e_wo_entrp">   -328.55804223 </i>
    <i name="e_0_energy">   -328.56848427 </i>
   </energy>
  </scstep>
  <scstep>
   <time name="dav">   25.59   25.62</time>
   <time name="total">   26.19   26.23</time>
   <energy>
    <i name="e_fr_energy">   -328.55973781 </i>
    <i name="e_wo_entrp">   -328.54196338 </i>
    <i name="e_0_energy">   -328.55381300 </i>
   </energy>
  </scstep>
  <scstep>
   <time name="dav">   25.33   25.36</time>
   <time name="total">   25.95   25.99</time>
   <energy>
    <i name="e_fr_energy">   -328.55334420 </i>
    <i name="e_wo_entrp">   -328.53631674 </i>
    <i name="e_0_energy">   -328.54766838 </i>
   </energy>
  </scstep>
  <scstep>
   <time name="dav">   24.22   24.25</time>
   <time name="total">   24.82   24.86</time>
   <energy>
    <i name="e_fr_energy">   -328.54826128 </i>
    <i name="e_wo_entrp">   -328.53105585 </i>
    <i name="e_0_energy">   -328.54252613 </i>
   </energy>
  </scstep>
  <scstep>
   <time name="dav">   23.99   24.03</time>
   <time name="total">   24.59   24.63</time>
   <energy>
    <i name="e_fr_energy">   -328.54520824 </i>
    <i name="e_wo_entrp">   -328.52910583 </i>
    <i name="e_0_energy">   -328.53984077 </i>
   </energy>
  </scstep>
  <scstep>
   <time name="dav">   25.14   25.17</time>
   <time name="total">   25.75   25.80</time>
   <energy>
    <i name="e_fr_energy">   -328.54509570 </i>
    <i name="e_wo_entrp">   -328.52910270 </i>
    <i name="e_0_energy">   -328.53976470 </i>
   </energy>
  </scstep>
  <scstep>
   <time name="dav">   22.87   22.90</time>
   <time name="total">   23.48   23.51</time>
   <energy>
    <i name="e_fr_energy">   -328.54434674 </i>
    <i name="e_wo_entrp">   -328.52802045 </i>
    <i name="e_0_energy">   -328.53890464 </i>
   </energy>
  </scstep>
  <scstep>
   <time name="dav">   21.29   21.31</time>
   <time name="total">   21.32   21.35</time>
   <energy>
    <i name="alphaZ">   1291.39724513 </i>
    <i name="ewald"> -11627.44759426 </i>
    <i name="hartreedc">  -2901.47016888 </i>
    <i name="XCdc">   -851.88365934 </i>
    <i name="pawpsdc">  20595.40056829 </i>
    <i name="pawaedc"> -19090.22637785 </i>
    <i name="eentropy">     -0.01641190 </i>
    <i name="bandstr">   -750.51567107 </i>
    <i name="atom">  13006.21773402 </i>
    <i name="e_fr_energy">   -328.54433585 </i>
    <i name="e_wo_entrp">   -328.52792395 </i>
    <i name="e_0_energy">   -328.53886521 </i>
   </energy>
  </scstep>
  <structure>
   <crystal>
    <varray name="basis" >
     <v>      -3.19000000      -3.19000000      -3.19000000 </v>
     <v>       1.59500000       1.59500000      -7.97500000 </v>
     <v>       7.97500000      -7.97500000      -1.59500000 </v>
    </varray>
    <i name="volume">    486.92638500 </i>
    <varray name="rec_basis" >
     <v>      -0.13584117      -0.12539185      -0.05224660 </v>
     <v>       0.04179728       0.06269592      -0.10449321 </v>
     <v>       0.06269592      -0.06269592       0.00000000 </v>
    </varray>
   </crystal>
   <varray name="positions" >
    <v>       0.96666667       0.93333333       0.40000000 </v>
    <v>       0.63333333       0.26666667       0.40000000 </v>
    <v>       0.50000000       0.00000000       0.00000000 </v>
    <v>       0.00000000       0.00000000       0.00000000 </v>
    <v>       0.10000000       0.20000000       0.80000000 </v>
    <v>       0.03333333       0.06666667       0.60000000 </v>
    <v>       0.90000000       0.80000000       0.20000000 </v>
    <v>       0.80000000       0.60000000       0.40000000 </v>
    <v>       0.73333333       0.46666667       0.20000000 </v>
    <v>       0.66666667       0.33333333       0.00000000 </v>
    <v>       0.36666667       0.73333333       0.60000000 </v>
    <v>       0.13333333       0.26666667       0.40000000 </v>
    <v>       0.83333333       0.66666667       0.00000000 </v>
    <v>       0.93333333       0.86666667       0.80000000 </v>
    <v>       0.56666667       0.13333333       0.20000000 </v>
    <v>       0.40000000       0.80000000       0.20000000 </v>
    <v>       0.43333333       0.86666667       0.80000000 </v>
    <v>       0.30000000       0.60000000       0.40000000 </v>
    <v>       0.86666667       0.73333333       0.60000000 </v>
    <v>       0.46666667       0.93333333       0.40000000 </v>
    <v>       0.16666667       0.33333333       0.00000000 </v>
    <v>       0.26666667       0.53333333       0.80000000 </v>
    <v>       0.20000000       0.40000000       0.60000000 </v>
    <v>       0.06666667       0.13333333       0.20000000 </v>
    <v>       0.76666667       0.53333333       0.80000000 </v>
    <v>       0.70000000       0.40000000       0.60000000 </v>
    <v>       0.53333333       0.06666667       0.60000000 </v>
    <v>       0.33333333       0.66666667       0.00000000 </v>
    <v>       0.23333333       0.46666667       0.20000000 </v>
   </varray>
  </structure>
  <varray name="forces" >
   <v>       0.00789982       0.53039850       0.16637260 </v>
   <v>       0.20056018      -0.18435024       0.15439677 </v>
   <v>      -0.27468996       0.55923139      -0.58017418 </v>
   <v>       0.26247692      -0.16435080      -0.23844943 </v>
   <v>       0.14366664       0.52105291      -0.32438044 </v>
   <v>      -0.45734121       0.16108666      -0.34238032 </v>
   <v>       0.26775087      -0.35092367       0.07817516 </v>
   <v>      -0.50126474      -0.24116469       0.52288828 </v>
   <v>      -0.12739576       0.09506959       0.04238214 </v>
   <v>       0.00938332       0.26357109      -0.59218616 </v>
   <v>      -0.06615932      -0.39513505       0.39078897 </v>
   <v>       0.10483748       0.17251587      -0.48487654 </v>
   <v>       0.07464505      -0.36634911       0.24641240 </v>
   <v>       0.40589318       0.55277019      -0.58212338 </v>
   <v>      -0.41122814       0.42808653      -0.01549050 </v>
   <v>      -0.45223291      -0.33739280       0.58374167 </v>
   <v>      -0.71170813       0.20143169       0.97847647 </v>
   <v>       0.26845602      -0.26234324      -0.27258300 </v>
   <v>       0.17268198       0.31761007       0.29549245 </v>
   <v>       0.38527180      -0.44582803       0.20069584 </v>
   <v>       0.51178577      -0.28222738      -0.28530099 </v>
   <v>      -0.34855540      -0.18516658       0.14655713 </v>
   <v>      -0.35300603       0.38058065       0.64660209 </v>
   <v>       0.44542811      -0.11752756      -0.67134218 </v>
   <v>      -0.34961604      -0.42612485       0.36381444 </v>
   <v>       0.56618124      -0.03091002      -0.73974060 </v>
   <v>       0.30766478      -0.46735305      -0.51848900 </v>
   <v>      -0.13993747      -0.26197905       0.86378233 </v>
   <v>       0.05855194       0.33572098      -0.03306201 </v>
  </varray>
  <varray name="stress" >
   <v>     -22.52678905      -8.83328132       0.25320700 </v>
   <v>      -8.83328127     -26.31238153      -0.47057919 </v>
   <v>       0.25320696      -0.47057923     -21.32435580 </v>
  </varray>
  <energy>
   <i name="e_fr_energy">   -328.54433585 </i>
   <i name="e_wo_entrp">   -328.53886521 </i>
   <i name="e_0_energy">     -0.01641190 </i>
  </energy>
  <time name="totalsc">  541.09  542.24</time>
 </calculation>
 <calculation>
  <scstep>
   <time name="dav">   19.52   19.55</time>
   <time name="total">   20.12   20.16</time>
   <energy>
    <i name="alphaZ">   1338.34182617 </i>
    <i name="ewald"> -11794.92532846 </i>
    <i name="hartreedc">  -2909.27630151 </i>
    <i name="XCdc">   -847.42694528 </i>
    <i name="pawpsdc">  20595.44180663 </i>
    <i name="pawaedc"> -19090.22572776 </i>
    <i name="eentropy">     -0.01180166 </i>
    <i name="bandstr">   -627.78535146 </i>
    <i name="atom">  13006.21773402 </i>
    <i name="e_fr_energy">   -329.65008931 </i>
    <i name="e_wo_entrp">   -329.63828765 </i>
    <i name="e_0_energy">   -329.64615542 </i>
   </energy>
  </scstep>
  <scstep>
   <time name="dav">   25.92   25.96</time>
   <time name="total">   26.52   26.56</time>
   <energy>
    <i name="e_fr_energy">   -330.08723103 </i>
    <i name="e_wo_entrp">   -330.08571457 </i>
    <i name="e_0_energy">   -330.08672554 </i>
   </energy>
  </scstep>
  <scstep>
   <time name="dav">   24.59   24.62</time>
   <time name="total">   25.20   25.24</time>
   <energy>
    <i name="e_fr_energy">   -329.41898271 </i>
    <i name="e_wo_entrp">   -329.40400894 </i>
    <i name="e_0_energy">   -329.41399145 </i>
   </energy>
  </scstep>
  <scstep>
   <time name="dav">   25.90   25.94</time>
   <time name="total">   26.50   26.54</time>
   <energy>
    <i name="e_fr_energy">   -329.22158071 </i>
    <i name="e_wo_entrp">   -329.21320088 </i>
    <i name="e_0_energy">   -329.21878743 </i>
   </energy>
  </scstep>
  <scstep>
   <time name="dav">   25.41   25.45</time>
   <time name="total">   26.02   26.05</time>
   <energy>
    <i name="e_fr_energy">   -328.93467581 </i>
    <i name="e_wo_entrp">   -328.92390290 </i>
    <i name="e_0_energy">   -328.93108484 </i>
   </energy>
  </scstep>
  <scstep>
   <time name="dav">   26.32   26.36</time>
   <time name="total">   26.93   26.97</time>
   <energy>
    <i name="e_fr_energy">   -328.87274892 </i>
    <i name="e_wo_entrp">   -328.86071339 </i>
    <i name="e_0_energy">   -328.86873707 </i>
   </energy>
  </scstep>
  <scstep>
   <time name="dav">   27.55   27.59</time>
   <time name="total">   28.16   28.20</time>
   <energy>
    <i name="e_fr_energy">   -328.87891823 </i>
    <i name="e_wo_entrp">   -328.86643543 </i>
    <i name="e_0_energy">   -328.87475730 </i>
   </energy>
  </scstep>
  <scstep>
   <time name="dav">   25.69   25.73</time>
   <time name="total">   26.30   26.33</time>
   <energy>
    <i name="e_fr_energy">   -328.87699215 </i>
    <i name="e_wo_entrp">   -328.86433071 </i>
    <i name="e_0_energy">   -328.87277167 </i>
   </energy>
  </scstep>
  <scstep>
   <time name="dav">   25.25   25.29</time>
   <time name="total">   25.86   25.90</time>
   <energy>
    <i name="e_fr_energy">   -328.88042930 </i>
    <i name="e_wo_entrp">   -328.86781506 </i>
    <i name="e_0_energy">   -328.87622455 </i>
   </energy>
  </scstep>
  <scstep>
   <time name="dav">   26.22   26.25</time>
   <time name="total">   26.82   26.86</time>
   <energy>
    <i name="e_fr_energy">   -328.88219239 </i>
    <i name="e_wo_entrp">   -328.86949837 </i>
    <i name="e_0_energy">   -328.87796105 </i>
   </energy>
  </scstep>
  <scstep>
   <time name="dav">   26.45   26.48</time>
   <time name="total">   27.04   27.08</time>
   <energy>
    <i name="e_fr_energy">   -328.88339300 </i>
    <i name="e_wo_entrp">   -328.87060788 </i>
    <i name="e_0_energy">   -328.87913129 </i>
   </energy>
  </scstep>
  <scstep>
   <time name="dav">   25.67   25.71</time>
   <time name="total">   26.29   26.34</time>
   <energy>
    <i name="e_fr_energy">   -328.88320228 </i>
    <i name="e_wo_entrp">   -328.87030562 </i>
    <i name="e_0_energy">   -328.87890340 </i>
   </energy>
  </scstep>
  <scstep>
   <time name="dav">   25.13   25.19</time>
   <time name="total">   25.73   25.78</time>
   <energy>
    <i name="e_fr_energy">   -328.88319011 </i>
    <i name="e_wo_entrp">   -328.87036906 </i>
    <i name="e_0_energy">   -328.87891642 </i>
   </energy>
  </scstep>
  <scstep>
   <time name="dav">   21.43   21.47</time>
   <time name="total">   21.46   21.50</time>
   <energy>
    <i name="alphaZ">   1338.34182617 </i>
    <i name="ewald"> -11794.92532846 </i>
    <i name="hartreedc">  -2844.62718327 </i>
    <i name="XCdc">   -849.32531641 </i>
    <i name="pawpsdc">  21717.54163440 </i>
    <i name="pawaedc"> -20212.95604222 </i>
    <i name="eentropy">     -0.01289002 </i>
    <i name="bandstr">   -689.13765494 </i>
    <i name="atom">  13006.21773402 </i>
    <i name="e_fr_energy">   -328.88322073 </i>
    <i name="e_wo_entrp">   -328.87033071 </i>
    <i name="e_0_energy">   -328.87892405 </i>
   </energy>
  </scstep>
  <structure>
   <crystal>
    <varray name="basis" >
     <v>      -3.13983130      -3.13255864      -3.15525781 </v>
     <v>       1.56869055       1.56855615      -7.88919626 </v>
     <v>       7.91958409      -7.90414543      -1.57488591 </v>
    </varray>
    <i name="volume">    469.84662653 </i>
    <varray name="rec_basis" >
     <v>      -0.13797620      -0.12771965      -0.05282888 </v>
     <v>       0.04258027       0.06370846      -0.10562222 </v>
     <v>       0.06313245      -0.06325547      -0.00002338 </v>
    </varray>
   </crystal>
   <varray name="positions" >
    <v>       0.96298705       0.93411482       0.39841964 </v>
    <v>       0.63274501       0.26573517       0.40116421 </v>
    <v>       0.49987955       0.00406225      -0.00252229 </v>
    <v>      -0.00012489       0.00123419       0.00129099 </v>
    <v>       0.09672414       0.20350089       0.79885855 </v>
    <v>       0.03621897       0.06795766       0.59812949 </v>
    <v>       0.90017112       0.79908440       0.20187125 </v>
    <v>       0.80342587       0.59562392       0.39921330 </v>
    <v>       0.73348627       0.46648369       0.19932713 </v>
    <v>       0.66650339       0.33713468      -0.00076882 </v>
    <v>       0.36850551       0.73003481       0.60099503 </v>
    <v>       0.13282484       0.26984414       0.39979530 </v>
    <v>       0.83443920       0.66446695       0.00133384 </v>
    <v>       0.92879679       0.87209154       0.79955575 </v>
    <v>       0.56681104       0.13387701       0.19746139 </v>
    <v>       0.40353327       0.79512497       0.19965265 </v>
    <v>       0.43431262       0.86090830       0.79723810 </v>
    <v>       0.30051474       0.60112193       0.40160546 </v>
    <v>       0.86286894       0.73315259       0.59956165 </v>
    <v>       0.46633292       0.93175002       0.40251376 </v>
    <v>       0.16573913       0.33494988       0.00240159 </v>
    <v>       0.26970159       0.53133164       0.79950581 </v>
    <v>       0.19838138       0.39717977       0.59778118 </v>
    <v>       0.06615071       0.13726028       0.20170273 </v>
    <v>       0.77061855       0.52950550       0.80023141 </v>
    <v>       0.69834113       0.40477722       0.60180597 </v>
    <v>       0.53545109       0.06848720       0.60234413 </v>
    <v>       0.33365798       0.66123776       0.00036913 </v>
    <v>       0.23100210       0.46796683       0.19916167 </v>
   </varray>
  </structure>
  <varray name="forces" >
   <v>       0.06233842       0.29825448       0.08421356 </v>
   <v>       0.01952263       0.00431275       0.09093369 </v>
   <v>      -0.47304438       0.52968657      -0.32750943 </v>
   <v>       0.06494324      -0.13361845      -0.22139365 </v>
   <v>      -0.01685673       0.12967418      -0.09373844 </v>
   <v>      -0.31177875       0.09626667      -0.20136922 </v>
   <v>       0.05547928      -0.03883229       0.01149074 </v>
   <v>      -0.12807244      -0.15105646       0.12933587 </v>
   <v>      -0.01617170      -0.07644819       0.14614450 </v>
   <v>      -0.11898608       0.28034643      -0.13544124 </v>
   <v>      -0.03992971      -0.15825055       0.27712287 </v>
   <v>       0.03957931       0.02643764      -0.11513891 </v>
   <v>       0.04075786       0.03722284      -0.10935169 </v>
   <v>       0.44521444       0.52369209      -0.42531483 </v>
   <v>      -0.09680852       0.12397918       0.09853624 </v>
   <v>      -0.13001719      -0.12719366       0.10128821 </v>
   <v>      -0.14220495       0.04337798       0.50876685 </v>
   <v>       0.15111980      -0.24968883      -0.07173404 </v>
   <v>       0.03971135       0.19514147       0.11813626 </v>
   <v>       0.17641102      -0.23553054       0.15602810 </v>
   <v>       0.17729989      -0.15039952      -0.15125838 </v>
   <v>      -0.40516426      -0.23557960       0.36327284 </v>
   <v>      -0.14245307       0.22876889       0.20580713 </v>
   <v>       0.29282267      -0.14310953      -0.39383885 </v>
   <v>      -0.18488658      -0.25146258       0.13361287 </v>
   <v>       0.46941045      -0.13061331      -0.14903033 </v>
   <v>       0.29102931      -0.46192236      -0.37967204 </v>
   <v>      -0.16050090       0.02100692       0.35015804 </v>
   <v>       0.04123563       0.00553781      -0.00005672 </v>
  </varray>
  <varray name="stress" >
   <v>      55.31873986      -5.27586452      -0.13359441 </v>
   <v>      -5.27586451      53.03677647      -0.11003388 </v>
   <v>      -0.13359428      -0.11003387      56.17053753 </v>
  </varray>
  <energy>
   <i name="e_fr_energy">   -328.88322073 </i>
   <i name="e_wo_entrp">   -328.87892405 </i>
   <i name="e_0_energy">     -0.01289002 </i>
  </energy>
  <time name="totalsc">  376.69  377.27</time>
 </calculation>
 <calculation>
  <scstep>
   <time name="dav">   19.71   19.89</time>
   <time name="total">   20.30   20.51</time>
   <energy>
    <i name="alphaZ">   1328.43312698 </i>
    <i name="ewald"> -11760.32432910 </i>
    <i name="hartreedc">  -2842.97299415 </i>
    <i name="XCdc">   -850.24183109 </i>
    <i name="pawpsdc">  21716.82920646 </i>
    <i name="pawaedc"> -20212.13216329 </i>
    <i name="eentropy">     -0.01275730 </i>
    <i name="bandstr">   -714.73719684 </i>
    <i name="atom">  13006.21773402 </i>
    <i name="e_fr_energy">   -328.94120430 </i>
    <i name="e_wo_entrp">   -328.92844700 </i>
    <i name="e_0_energy">   -328.93695187 </i>
   </energy>
  </scstep>
  <scstep>
   <time name="dav">   27.09   27.13</time>
   <time name="total">   27.70   27.74</time>
   <energy>
    <i name="e_fr_energy">   -328.96009845 </i>
    <i name="e_wo_entrp">   -328.94466985 </i>
    <i name="e_0_energy">   -328.95495558 </i>
   </energy>
  </scstep>
  <scstep>
   <time name="dav">   24.90   24.94</time>
   <time name="total">   25.51   25.55</time>
   <energy>
    <i name="e_fr_energy">   -328.94286285 </i>
    <i name="e_wo_entrp">   -328.93169972 </i>
    <i name="e_0_energy">   -328.93914181 </i>
   </energy>
  </scstep>
  <scstep>
   <time name="dav">   26.71   26.74</time>
   <time name="total">   27.31   27.35</time>
   <energy>
    <i name="e_fr_energy">   -328.92404634 </i>
    <i name="e_wo_entrp">   -328.91034638 </i>
    <i name="e_0_energy">   -328.91947969 </i>
   </energy>
  </scstep>
  <scstep>
   <time name="dav">   25.41   25.44</time>
   <time name="total">   26.01   26.05</time>
   <energy>
    <i name="e_fr_energy">   -328.91145147 </i>
    <i name="e_wo_entrp">   -328.89820408 </i>
    <i name="e_0_energy">   -328.90703567 </i>
   </energy>
  </scstep>
  <scstep>
   <time name="dav">   26.13   26.17</time>
   <time name="total">   26.75   26.79</time>
   <energy>
    <i name="e_fr_energy">   -328.90911918 </i>
    <i name="e_wo_entrp">   -328.89583307 </i>
    <i name="e_0_energy">   -328.90469048 </i>
   </energy>
  </scstep>
  <scstep>
   <time name="dav">   26.01   26.04</time>
   <time name="total">   26.61   26.65</time>
   <energy>
    <i name="e_fr_energy">   -328.90928475 </i>
    <i name="e_wo_entrp">   -328.89603489 </i>
    <i name="e_0_energy">   -328.90486813 </i>
   </energy>
  </scstep>
  <scstep>
   <time name="dav">   23.24   23.28</time>
   <time name="total">   23.85   23.88</time>
   <energy>
    <i name="e_fr_energy">   -328.90916671 </i>
    <i name="e_wo_entrp">   -328.89582749 </i>
    <i name="e_0_energy">   -328.90472031 </i>
   </energy>
  </scstep>
  <scstep>
   <time name="dav">   22.66   22.69</time>
   <time name="total">   23.28   23.32</time>
   <energy>
    <i name="e_fr_energy">   -328.90927802 </i>
    <i name="e_wo_entrp">   -328.89604106 </i>
    <i name="e_0_energy">   -328.90486570 </i>
   </energy>
  </scstep>
  <scstep>
   <time name="dav">   22.39   22.42</time>
   <time name="total">   23.00   23.04</time>
   <energy>
    <i name="e_fr_energy">   -328.90932950 </i>
    <i name="e_wo_entrp">   -328.89604546 </i>
    <i name="e_0_energy">   -328.90490149 </i>
   </energy>
  </scstep>
  <scstep>
   <time name="dav">   20.35   20.38</time>
   <time name="total">   20.38   20.41</time>
   <energy>
    <i name="alphaZ">   1328.43312698 </i>
    <i name="ewald"> -11760.32432910 </i>
    <i name="hartreedc">  -2856.41560595 </i>
    <i name="XCdc">   -849.84357461 </i>
    <i name="pawpsdc">  21468.80941819 </i>
    <i name="pawaedc"> -19963.65749758 </i>
    <i name="eentropy">     -0.01326764 </i>
    <i name="bandstr">   -702.11533181 </i>
    <i name="atom">  13006.21773402 </i>
    <i name="e_fr_energy">   -328.90932750 </i>
    <i name="e_wo_entrp">   -328.89605985 </i>
    <i name="e_0_energy">   -328.90490495 </i>
   </energy>
  </scstep>
  <structure>
   <crystal>
    <varray name="basis" >
     <v>      -3.15021809      -3.14445114      -3.16245074 </v>
     <v>       1.57413758       1.57403101      -7.90696082 </v>
     <v>       7.93105724      -7.91881496      -1.57905028 </v>
    </varray>
    <i name="volume">    473.35118298 </i>
    <varray name="rec_basis" >
     <v>      -0.13752841      -0.12723094      -0.05270724 </v>
     <v>       0.04241590       0.06349605      -0.10538648 </v>
     <v>       0.06304167      -0.06313871      -0.00001847 </v>
    </varray>
   </crystal>
   <varray name="positions" >
    <v>       0.96376234       0.93394948       0.39874980 </v>
    <v>       0.63286770       0.26593007       0.40092130 </v>
    <v>       0.49990826       0.00321116      -0.00199590 </v>
    <v>      -0.00009864       0.00097559       0.00102159 </v>
    <v>       0.09741565       0.20276602       0.79909708 </v>
    <v>       0.03561353       0.06768846       0.59851957 </v>
    <v>       0.90013369       0.79927630       0.20148072 </v>
    <v>       0.80270333       0.59654218       0.39937713 </v>
    <v>       0.73345435       0.46652208       0.19946753 </v>
    <v>       0.66654008       0.33633824      -0.00060835 </v>
    <v>       0.36811648       0.73072665       0.60078719 </v>
    <v>       0.13293355       0.26917825       0.39983807 </v>
    <v>       0.83420475       0.66492827       0.00105537 </v>
    <v>       0.92975414       0.87095306       0.79964891 </v>
    <v>       0.56678224       0.13376316       0.19799116 </v>
    <v>       0.40278766       0.79614781       0.19972479 </v>
    <v>       0.43410507       0.86211506       0.79781437 </v>
    <v>       0.30040621       0.60088713       0.40127037 </v>
    <v>       0.86366799       0.73318878       0.59965349 </v>
    <v>       0.46640103       0.93208159       0.40198919 </v>
    <v>       0.16593386       0.33461083       0.00190049 </v>
    <v>       0.26906236       0.53175232       0.79960865 </v>
    <v>       0.19872157       0.39776986       0.59824438 </v>
    <v>       0.06626039       0.13643739       0.20134744 </v>
    <v>       0.76978512       0.53030915       0.80018273 </v>
    <v>       0.69869163       0.40377570       0.60142926 </v>
    <v>       0.53500531       0.06810676       0.60185474 </v>
    <v>       0.33358672       0.66237523       0.00029205 </v>
    <v>       0.23149361       0.46769342       0.19933685 </v>
   </varray>
  </structure>
  <varray name="forces" >
   <v>       0.05011880       0.35717145       0.10348675 </v>
   <v>       0.06053672      -0.04014791       0.10941587 </v>
   <v>      -0.43477095       0.53816463      -0.38670945 </v>
   <v>       0.10593337      -0.13575067      -0.22450719 </v>
   <v>       0.02269293       0.22283306      -0.14568517 </v>
   <v>      -0.34302445       0.11194865      -0.23459770 </v>
   <v>       0.10241655      -0.11072333       0.02852979 </v>
   <v>      -0.21209577      -0.17972188       0.21765101 </v>
   <v>      -0.04577757      -0.03868333       0.12082385 </v>
   <v>      -0.09113441       0.28225488      -0.24365050 </v>
   <v>      -0.05330697      -0.22099007       0.30641366 </v>
   <v>       0.06264519       0.05655406      -0.20278020 </v>
   <v>       0.04842739      -0.05053454      -0.03973647 </v>
   <v>       0.44118927       0.54096786      -0.46302461 </v>
   <v>      -0.16994438       0.17752574       0.07406537 </v>
   <v>      -0.20623519      -0.16870079       0.19353786 </v>
   <v>      -0.26212707       0.08712672       0.60833160 </v>
   <v>       0.18465560      -0.25575944      -0.09773910 </v>
   <v>       0.06863852       0.22365830       0.15836177 </v>
   <v>       0.21873243      -0.28391259       0.16815019 </v>
   <v>       0.25837504      -0.18491618      -0.18255027 </v>
   <v>      -0.39846528      -0.22545141       0.32151574 </v>
   <v>      -0.18787650       0.26539362       0.30774877 </v>
   <v>       0.33035962      -0.13519891      -0.45947284 </v>
   <v>      -0.23228000      -0.29146804       0.19309648 </v>
   <v>       0.49895812      -0.11240369      -0.29067904 </v>
   <v>       0.29585373      -0.46700732      -0.41094368 </v>
   <v>      -0.15348586      -0.05086980       0.47607651 </v>
   <v>       0.04099112       0.08864093      -0.00512900 </v>
  </varray>
  <varray name="stress" >
   <v>      38.69852133      -5.99893848       0.06554322 </v>
   <v>      -5.99893848      36.28721356      -0.10579984 </v>
   <v>       0.06554318      -0.10579979      39.81865070 </v>
  </varray>
  <energy>
   <i name="e_fr_energy">   -328.90932750 </i>
   <i name="e_wo_entrp">   -328.90490495 </i>
   <i name="e_0_energy">     -0.01326764 </i>
  </energy>
  <time name="totalsc">  288.45  289.04</time>
 </calculation>
 <calculation>
  <scstep>
   <time name="dav">   18.67   18.81</time>
   <time name="total">   19.27   19.44</time>
   <energy>
    <i name="alphaZ">   1315.86422322 </i>
    <i name="ewald"> -11740.40244566 </i>
    <i name="hartreedc">  -2830.51282397 </i>
    <i name="XCdc">   -851.14514425 </i>
    <i name="pawpsdc">  21468.26664946 </i>
    <i name="pawaedc"> -19963.23480222 </i>
    <i name="eentropy">     -0.00896464 </i>
    <i name="bandstr">   -734.15310113 </i>
    <i name="atom">  13006.21773402 </i>
    <i name="e_fr_energy">   -329.10867516 </i>
    <i name="e_wo_entrp">   -329.09971052 </i>
    <i name="e_0_energy">   -329.10568695 </i>
   </energy>
  </scstep>
  <scstep>
   <time name="dav">   24.95   24.99</time>
   <time name="total">   25.55   25.59</time>
   <energy>
    <i name="e_fr_energy">   -329.29212488 </i>
    <i name="e_wo_entrp">   -329.28009605 </i>
    <i name="e_0_energy">   -329.28811527 </i>
   </energy>
  </scstep>
  <scstep>
   <time name="dav">   25.83   25.87</time>
   <time name="total">   26.44   26.49</time>
   <energy>
    <i name="e_fr_energy">   -329.27565766 </i>
    <i name="e_wo_entrp">   -329.26627806 </i>
    <i name="e_0_energy">   -329.27253112 </i>
   </energy>
  </scstep>
  <scstep>
   <time name="dav">   25.26   25.34</time>
   <time name="total">   25.87   25.97</time>
   <energy>
    <i name="e_fr_energy">   -329.22994395 </i>
    <i name="e_wo_entrp">   -329.22094354 </i>
    <i name="e_0_energy">   -329.22694381 </i>
   </energy>
  </scstep>
  <scstep>
   <time name="dav">   25.59   25.62</time>
   <time name="total">   26.19   26.23</time>
   <energy>
    <i name="e_fr_energy">   -329.22366579 </i>
    <i name="e_wo_entrp">   -329.21270512 </i>
    <i name="e_0_energy">   -329.22001223 </i>
   </energy>
  </scstep>
  <scstep>
   <time name="dav">   26.22   26.26</time>
   <time name="total">   26.83   26.87</time>
   <energy>
    <i name="e_fr_energy">   -329.22398416 </i>
    <i name="e_wo_entrp">   -329.21503874 </i>
    <i name="e_0_energy">   -329.22100235 </i>
   </energy>
  </scstep>
  <scstep>
   <time name="dav">   27.68   27.72</time>
   <time name="total">   28.29   28.33</time>
   <energy>
    <i name="e_fr_energy">   -329.21706028 </i>
    <i name="e_wo_entrp">   -329.20722163 </i>
    <i name="e_0_energy">   -329.21378073 </i>
   </energy>
  </scstep>
  <scstep>
   <time name="dav">   24.51   24.54</time>
   <time name="total">   25.11   25.15</time>
   <energy>
    <i name="e_fr_energy">   -329.21654781 </i>
    <i name="e_wo_entrp">   -329.20683356 </i>
    <i name="e_0_energy">   -329.21330972 </i>
   </energy>
  </scstep>
  <scstep>
   <time name="dav">   23.53   23.56</time>
   <time name="total">   24.14   24.18</time>
   <energy>
    <i name="e_fr_energy">   -329.21649448 </i>
    <i name="e_wo_entrp">   -329.20686860 </i>
    <i name="e_0_energy">   -329.21328585 </i>
   </energy>
  </scstep>
  <scstep>
   <time name="dav">   22.42   22.45</time>
   <time name="total">   23.01   23.05</time>
   <energy>
    <i name="e_fr_energy">   -329.21655656 </i>
    <i name="e_wo_entrp">   -329.20686765 </i>
    <i name="e_0_energy">   -329.21332692 </i>
   </energy>
  </scstep>
  <scstep>
   <time name="dav">   22.60   22.64</time>
   <time name="total">   23.20   23.24</time>
   <energy>
    <i name="e_fr_energy">   -329.21671028 </i>
    <i name="e_wo_entrp">   -329.20702981 </i>
    <i name="e_0_energy">   -329.21348346 </i>
   </energy>
  </scstep>
  <scstep>
   <time name="dav">   21.65   21.68</time>
   <time name="total">   22.25   22.29</time>
   <energy>
    <i name="e_fr_energy">   -329.21661131 </i>
    <i name="e_wo_entrp">   -329.20695217 </i>
    <i name="e_0_energy">   -329.21339159 </i>
   </energy>
  </scstep>
  <scstep>
   <time name="dav">   14.50   14.52</time>
   <time name="total">   14.53   14.55</time>
   <energy>
    <i name="alphaZ">   1315.86422322 </i>
    <i name="ewald"> -11740.40244566 </i>
    <i name="hartreedc">  -2845.99183084 </i>
    <i name="XCdc">   -850.63171328 </i>
    <i name="pawpsdc">  21134.90600454 </i>
    <i name="pawaedc"> -19630.22342180 </i>
    <i name="eentropy">     -0.00964324 </i>
    <i name="bandstr">   -718.94548850 </i>
    <i name="atom">  13006.21773402 </i>
    <i name="e_fr_energy">   -329.21658153 </i>
    <i name="e_wo_entrp">   -329.20693829 </i>
    <i name="e_0_energy">   -329.21336711 </i>
   </energy>
  </scstep>
  <structure>
   <crystal>
    <varray name="basis" >
     <v>      -3.15036627      -3.13924954      -3.17501891 </v>
     <v>       1.57347712       1.57274922      -7.93896738 </v>
     <v>       7.98647577      -7.96247500      -1.58372185 </v>
    </varray>
    <i name="volume">    477.87255028 </i>
    <varray name="rec_basis" >
     <v>      -0.13749404      -0.12746583      -0.05250248 </v>
     <v>       0.04249943       0.06350337      -0.10495738 </v>
     <v>       0.06260227      -0.06279179      -0.00003181 </v>
    </varray>
   </crystal>
   <varray name="positions" >
    <v>       0.96066719       0.93464492       0.39754860 </v>
    <v>       0.63238093       0.26521968       0.40162571 </v>
    <v>       0.50010904       0.00645356      -0.00460169 </v>
    <v>       0.00017035       0.00201452       0.00198893 </v>
    <v>       0.09528459       0.20515007       0.79826045 </v>
    <v>       0.03803561       0.06870141       0.59696914 </v>
    <v>       0.90018518       0.79870488       0.20268660 </v>
    <v>       0.80528621       0.59344338       0.39895298 </v>
    <v>       0.73363792       0.46604531       0.19913345 </v>
    <v>       0.66621789       0.33907500      -0.00151264 </v>
    <v>       0.36944895       0.72803081       0.60150661 </v>
    <v>       0.13256787       0.27133934       0.39974807 </v>
    <v>       0.83478619       0.66393366       0.00183938 </v>
    <v>       0.92516820       0.87588556       0.79929061 </v>
    <v>       0.56677865       0.13394086       0.19627187 </v>
    <v>       0.40540222       0.79288702       0.19950483 </v>
    <v>       0.43442153       0.85775335       0.79598516 </v>
    <v>       0.30093481       0.60147149       0.40267343 </v>
    <v>       0.86077930       0.73311414       0.59921969 </v>
    <v>       0.46617915       0.93071714       0.40391834 </v>
    <v>       0.16543105       0.33581065       0.00369064 </v>
    <v>       0.27204257       0.52930757       0.79912437 </v>
    <v>       0.19739044       0.39587525       0.59652731 </v>
    <v>       0.06591729       0.13955501       0.20283295 </v>
    <v>       0.77303783       0.52735314       0.80038000 </v>
    <v>       0.69700107       0.40709662       0.60317249 </v>
    <v>       0.53694747       0.06957826       0.60407508 </v>
    <v>       0.33380585       0.65839490       0.00032317 </v>
    <v>       0.22998466       0.46850250       0.19886448 </v>
   </varray>
  </structure>
  <varray name="forces" >
   <v>       0.02500253       0.15864393       0.08086215 </v>
   <v>      -0.00644984       0.04550232       0.01337254 </v>
   <v>      -0.48200141       0.34404033      -0.08700432 </v>
   <v>      -0.01966975      -0.19600451      -0.13623579 </v>
   <v>      -0.07528219      -0.03844807       0.06691052 </v>
   <v>      -0.25636165       0.04732480      -0.14257668 </v>
   <v>      -0.07176243       0.06881839       0.00577719 </v>
   <v>       0.01999293      -0.09723356       0.01872540 </v>
   <v>       0.07072586      -0.06965364       0.11830611 </v>
   <v>      -0.06564155       0.16516667      -0.02856173 </v>
   <v>      -0.02278284      -0.03266518       0.20604119 </v>
   <v>      -0.00046642      -0.00894989       0.01435238 </v>
   <v>       0.06476724       0.23896880      -0.24035945 </v>
   <v>       0.35153810       0.39518359      -0.27971015 </v>
   <v>      -0.02546298       0.03127918       0.09815670 </v>
   <v>      -0.08115689       0.00317197      -0.02879997 </v>
   <v>       0.07881986      -0.00864430       0.35018642 </v>
   <v>       0.05046380      -0.15013592       0.00730481 </v>
   <v>       0.02246046       0.11884512       0.00798162 </v>
   <v>       0.09743466      -0.13449367       0.11372480 </v>
   <v>       0.10468777      -0.06929830      -0.09792895 </v>
   <v>      -0.29919728      -0.19474221       0.28580866 </v>
   <v>      -0.07831253       0.18268205       0.04442621 </v>
   <v>       0.24327770      -0.14715987      -0.21282365 </v>
   <v>      -0.04030796      -0.13828866      -0.02614308 </v>
   <v>       0.27225339      -0.07674760       0.04191844 </v>
   <v>       0.17287201      -0.36524513      -0.19850781 </v>
   <v>      -0.10757675       0.08255269       0.05406809 </v>
   <v>       0.05813617      -0.15446932      -0.04927165 </v>
  </varray>
  <varray name="stress" >
   <v>      17.99890053      -2.87980843      -0.31245868 </v>
   <v>      -2.87980854      16.38089035       0.46851504 </v>
   <v>      -0.31245884       0.46851497      18.63755021 </v>
  </varray>
  <energy>
   <i name="e_fr_energy">   -329.21658153 </i>
   <i name="e_wo_entrp">   -329.21336711 </i>
   <i name="e_0_energy">     -0.00964324 </i>
  </energy>
  <time name="totalsc">  328.37  329.10</time>
 </calculation>
 <calculation>
  <scstep>
   <time name="dav">   18.49   18.52</time>
   <time name="total">   19.09   19.13</time>
   <energy>
    <i name="alphaZ">   1306.35929638 </i>
    <i name="ewald"> -11723.16171188 </i>
    <i name="hartreedc">  -2827.82287981 </i>
    <i name="XCdc">   -851.62227450 </i>
    <i name="pawpsdc">  21135.09681896 </i>
    <i name="pawaedc"> -19630.42251617 </i>
    <i name="eentropy">     -0.00773389 </i>
    <i name="bandstr">   -743.86286521 </i>
    <i name="atom">  13006.21773402 </i>
    <i name="e_fr_energy">   -329.22613210 </i>
    <i name="e_wo_entrp">   -329.21839821 </i>
    <i name="e_0_energy">   -329.22355414 </i>
   </energy>
  </scstep>
  <scstep>
   <time name="dav">   24.83   24.86</time>
   <time name="total">   25.43   25.47</time>
   <energy>
    <i name="e_fr_energy">   -329.33216508 </i>
    <i name="e_wo_entrp">   -329.32272029 </i>
    <i name="e_0_energy">   -329.32901682 </i>
   </energy>
  </scstep>
  <scstep>
   <time name="dav">   25.67   25.71</time>
   <time name="total">   26.27   26.31</time>
   <energy>
    <i name="e_fr_energy">   -329.32284482 </i>
    <i name="e_wo_entrp">   -329.31439909 </i>
    <i name="e_0_energy">   -329.32002958 </i>
   </energy>
  </scstep>
  <scstep>
   <time name="dav">   24.71   24.74</time>
   <time name="total">   25.31   25.34</time>
   <energy>
    <i name="e_fr_energy">   -329.29682929 </i>
    <i name="e_wo_entrp">   -329.28941968 </i>
    <i name="e_0_energy">   -329.29435942 </i>
   </energy>
  </scstep>
  <scstep>
   <time name="dav">   25.40   25.43</time>
   <time name="total">   26.01   26.05</time>
   <energy>
    <i name="e_fr_energy">   -329.29328176 </i>
    <i name="e_wo_entrp">   -329.28415009 </i>
    <i name="e_0_energy">   -329.29023787 </i>
   </energy>
  </scstep>
  <scstep>
   <time name="dav">   26.03   26.06</time>
   <time name="total">   26.63   26.67</time>
   <energy>
    <i name="e_fr_energy">   -329.29232538 </i>
    <i name="e_wo_entrp">   -329.28458465 </i>
    <i name="e_0_energy">   -329.28974514 </i>
   </energy>
  </scstep>
  <scstep>
   <time name="dav">   27.44   27.48</time>
   <time name="total">   28.04   28.08</time>
   <energy>
    <i name="e_fr_energy">   -329.28878410 </i>
    <i name="e_wo_entrp">   -329.28052856 </i>
    <i name="e_0_energy">   -329.28603225 </i>
   </energy>
  </scstep>
  <scstep>
   <time name="dav">   24.21   24.25</time>
   <time name="total">   24.84   24.88</time>
   <energy>
    <i name="e_fr_energy">   -329.28851418 </i>
    <i name="e_wo_entrp">   -329.28033664 </i>
    <i name="e_0_energy">   -329.28578833 </i>
   </energy>
  </scstep>
  <scstep>
   <time name="dav">   22.96   22.99</time>
   <time name="total">   23.56   23.60</time>
   <energy>
    <i name="e_fr_energy">   -329.28843866 </i>
    <i name="e_wo_entrp">   -329.28033727 </i>
    <i name="e_0_energy">   -329.28573819 </i>
   </energy>
  </scstep>
  <scstep>
   <time name="dav">   20.18   20.20</time>
   <time name="total">   20.21   20.24</time>
   <energy>
    <i name="alphaZ">   1306.35929638 </i>
    <i name="ewald"> -11723.16171188 </i>
    <i name="hartreedc">  -2840.29000952 </i>
    <i name="XCdc">   -851.21577227 </i>
    <i name="pawpsdc">  20909.28135119 </i>
    <i name="pawaedc"> -19404.37314956 </i>
    <i name="eentropy">     -0.00815413 </i>
    <i name="bandstr">   -732.09806614 </i>
    <i name="atom">  13006.21773402 </i>
    <i name="e_fr_energy">   -329.28848190 </i>
    <i name="e_wo_entrp">   -329.28032777 </i>
    <i name="e_0_energy">   -329.28576385 </i>
   </energy>
  </scstep>
  <structure>
   <crystal>
    <varray name="basis" >
     <v>      -3.15047986      -3.13526182      -3.18465408 </v>
     <v>       1.57297079       1.57176656      -7.96350465 </v>
     <v>       8.02896142      -7.99594621      -1.58730323 </v>
    </varray>
    <i name="volume">    481.34949850 </i>
    <varray name="rec_basis" >
     <v>      -0.13746898      -0.12764507      -0.05234667 </v>
     <v>       0.04256307       0.06350943      -0.10463076 </v>
     <v>       0.06226911      -0.06252885      -0.00004185 </v>
    </varray>
   </crystal>
   <varray name="positions" >
    <v>       0.95829170       0.93518030       0.39663263 </v>
    <v>       0.63200979       0.26467742       0.40216227 </v>
    <v>       0.50025453       0.00893110      -0.00658702 </v>
    <v>       0.00037637       0.00280802       0.00272596 </v>
    <v>       0.09364617       0.20697455       0.79762243 </v>
    <v>       0.03988877       0.06947248       0.59578850 </v>
    <v>       0.90022717       0.79826810       0.20360534 </v>
    <v>       0.80727031       0.59107223       0.39863059 </v>
    <v>       0.73377889       0.46568077       0.19887899 </v>
    <v>       0.66596558       0.34116672      -0.00220176 </v>
    <v>       0.37047545       0.72596908       0.60205514 </v>
    <v>       0.13228420       0.27299119       0.39967933 </v>
    <v>       0.83523449       0.66317285       0.00243688 </v>
    <v>       0.92164472       0.87966048       0.79901630 </v>
    <v>       0.56677325       0.13407675       0.19496199 </v>
    <v>       0.40741112       0.79039204       0.19933802 </v>
    <v>       0.43466807       0.85442010       0.79459175 </v>
    <v>       0.30134111       0.60191728       0.40374249 </v>
    <v>       0.85856429       0.73306076       0.59888844 </v>
    <v>       0.46601375       0.92967468       0.40538809 </v>
    <v>       0.16504629       0.33672801       0.00505433 </v>
    <v>       0.27433021       0.52743572       0.79875626 </v>
    <v>       0.19637039       0.39442928       0.59521884 </v>
    <v>       0.06565169       0.14193766       0.20396453 </v>
    <v>       0.77553608       0.52509023       0.80053122 </v>
    <v>       0.69570254       0.40963631       0.60450007 </v>
    <v>       0.53843726       0.07070012       0.60576716 </v>
    <v>       0.33397979       0.65535308       0.00034705 </v>
    <v>       0.22882602       0.46912268       0.19850418 </v>
   </varray>
  </structure>
  <varray name="forces" >
   <v>       0.02655687      -0.00637237       0.06364021 </v>
   <v>      -0.06233153       0.10483868      -0.06653720 </v>
   <v>      -0.51641603       0.20432053       0.13003478 </v>
   <v>      -0.09585614      -0.22464973      -0.06815163 </v>
   <v>      -0.15761181      -0.23283677       0.23513993 </v>
   <v>      -0.17917858      -0.00851296      -0.06757521 </v>
   <v>      -0.20897624       0.20107800      -0.00175844 </v>
   <v>       0.20657984      -0.01993828      -0.14422341 </v>
   <v>       0.16043943      -0.08558091       0.10701971 </v>
   <v>      -0.05468374       0.06038908       0.15555017 </v>
   <v>       0.01377868       0.12113251       0.11691833 </v>
   <v>      -0.05368332      -0.06449324       0.18315275 </v>
   <v>       0.09002539       0.45014760      -0.38292628 </v>
   <v>       0.27725261       0.26047804      -0.10706798 </v>
   <v>       0.09450838      -0.09304903       0.09162033 </v>
   <v>      -0.00477147       0.13519726      -0.18969687 </v>
   <v>       0.31052470      -0.10363581       0.11542316 </v>
   <v>      -0.05653236      -0.06904195       0.09692535 </v>
   <v>      -0.01559535       0.03612052      -0.10328448 </v>
   <v>       0.00440507      -0.02665632       0.08078930 </v>
   <v>      -0.03398845       0.02514239      -0.05174076 </v>
   <v>      -0.23686224      -0.17829703       0.27250272 </v>
   <v>       0.02638299       0.10672447      -0.15175543 </v>
   <v>       0.19604462      -0.13429033      -0.04301733 </v>
   <v>       0.12119922       0.00908409      -0.20389718 </v>
   <v>       0.08600242      -0.05623552       0.30774168 </v>
   <v>       0.06738679      -0.26874139      -0.02567426 </v>
   <v>      -0.07618566       0.19878195      -0.27094913 </v>
   <v>       0.07158593      -0.34110348      -0.07820283 </v>
  </varray>
  <varray name="stress" >
   <v>       5.19652753      -0.13669814      -1.04868782 </v>
   <v>      -0.13669814       4.31309550       0.47970661 </v>
   <v>      -1.04868784       0.47970660       5.21964027 </v>
  </varray>
  <energy>
   <i name="e_fr_energy">   -329.28848190 </i>
   <i name="e_wo_entrp">   -329.28576385 </i>
   <i name="e_0_energy">     -0.00815413 </i>
  </energy>
  <time name="totalsc">  262.96  263.36</time>
 </calculation>
 <calculation>
  <scstep>
   <time name="dav">   18.63   18.66</time>
   <time name="total">   19.24   19.27</time>
   <energy>
    <i name="alphaZ">   1300.91379795 </i>
    <i name="ewald"> -11703.68175710 </i>
    <i name="hartreedc">  -2839.61661766 </i>
    <i name="XCdc">   -851.74716035 </i>
    <i name="pawpsdc">  20905.22442392 </i>
    <i name="pawaedc"> -19400.56227492 </i>
    <i name="eentropy">     -0.00643946 </i>
    <i name="bandstr">   -746.07087086 </i>
    <i name="atom">  13006.21773402 </i>
    <i name="e_fr_energy">   -329.32916446 </i>
    <i name="e_wo_entrp">   -329.32272500 </i>
    <i name="e_0_energy">   -329.32701797 </i>
   </energy>
  </scstep>
  <scstep>
   <time name="dav">   24.89   24.92</time>
   <time name="total">   25.49   25.52</time>
   <energy>
    <i name="e_fr_energy">   -329.35755935 </i>
    <i name="e_wo_entrp">   -329.34845835 </i>
    <i name="e_0_energy">   -329.35452568 </i>
   </energy>
  </scstep>
  <scstep>
   <time name="dav">   25.88   25.92</time>
   <time name="total">   26.50   26.54</time>
   <energy>
    <i name="e_fr_energy">   -329.35047516 </i>
    <i name="e_wo_entrp">   -329.34455700 </i>
    <i name="e_0_energy">   -329.34850244 </i>
   </energy>
  </scstep>
  <scstep>
   <time name="dav">   25.19   25.22</time>
   <time name="total">   25.79   25.83</time>
   <energy>
    <i name="e_fr_energy">   -329.34348103 </i>
    <i name="e_wo_entrp">   -329.33630709 </i>
    <i name="e_0_energy">   -329.34108972 </i>
   </energy>
  </scstep>
  <scstep>
   <time name="dav">   25.32   25.36</time>
   <time name="total">   25.92   25.95</time>
   <energy>
    <i name="e_fr_energy">   -329.33988670 </i>
    <i name="e_wo_entrp">   -329.33275230 </i>
    <i name="e_0_energy">   -329.33750857 </i>
   </energy>
  </scstep>
  <scstep>
   <time name="dav">   26.47   26.50</time>
   <time name="total">   27.07   27.12</time>
   <energy>
    <i name="e_fr_energy">   -329.33951281 </i>
    <i name="e_wo_entrp">   -329.33229125 </i>
    <i name="e_0_energy">   -329.33710562 </i>
   </energy>
  </scstep>
  <scstep>
   <time name="dav">   24.83   24.87</time>
   <time name="total">   25.44   25.47</time>
   <energy>
    <i name="e_fr_energy">   -329.33914862 </i>
    <i name="e_wo_entrp">   -329.33194693 </i>
    <i name="e_0_energy">   -329.33674806 </i>
   </energy>
  </scstep>
  <scstep>
   <time name="dav">   22.20   22.23</time>
   <time name="total">   22.80   22.83</time>
   <energy>
    <i name="e_fr_energy">   -329.33901404 </i>
    <i name="e_wo_entrp">   -329.33185023 </i>
    <i name="e_0_energy">   -329.33662610 </i>
   </energy>
  </scstep>
  <scstep>
   <time name="dav">   16.31   16.33</time>
   <time name="total">   16.34   16.37</time>
   <energy>
    <i name="alphaZ">   1300.91379795 </i>
    <i name="ewald"> -11703.68175710 </i>
    <i name="hartreedc">  -2847.11137276 </i>
    <i name="XCdc">   -851.52424389 </i>
    <i name="pawpsdc">  20760.21489593 </i>
    <i name="pawaedc"> -19255.30170456 </i>
    <i name="eentropy">     -0.00715254 </i>
    <i name="bandstr">   -739.05923471 </i>
    <i name="atom">  13006.21773402 </i>
    <i name="e_fr_energy">   -329.33903766 </i>
    <i name="e_wo_entrp">   -329.33188512 </i>
    <i name="e_0_energy">   -329.33665348 </i>
   </energy>
  </scstep>
  <structure>
   <crystal>
    <varray name="basis" >
     <v>      -3.15389663      -3.13911613      -3.18892235 </v>
     <v>       1.57737453       1.57248408      -7.97565081 </v>
     <v>       8.04213173      -8.00667546      -1.59295993 </v>
    </varray>
    <i name="volume">    483.36438061 </i>
    <varray name="rec_basis" >
     <v>      -0.13729467      -0.12749913      -0.05229109 </v>
     <v>       0.04247764       0.06345061      -0.10447069 </v>
     <v>       0.06217054      -0.06244668      -0.00001632 </v>
[...]
       <r>    4.6088    1.0000 </r>
       <r>    4.6396    1.0000 </r>
       <r>    4.6842    1.0000 </r>
       <r>    4.7170    1.0000 </r>
       <r>    4.7840    1.0000 </r>
       <r>    4.8331    1.0000 </r>
       <r>    4.9021    1.0000 </r>
       <r>    4.9406    1.0000 </r>
       <r>    5.0296    1.0000 </r>
       <r>    5.0576    1.0000 </r>
       <r>    5.0963    1.0000 </r>
       <r>    5.1909    1.0000 </r>
       <r>    5.2482    1.0000 </r>
       <r>    5.2655    1.0000 </r>
       <r>    5.3179    1.0000 </r>
       <r>    5.3720    1.0000 </r>
       <r>    5.4929    1.0000 </r>
       <r>    5.5327    1.0000 </r>
       <r>    5.5563    1.0000 </r>
       <r>    5.6498    1.0000 </r>
       <r>    5.6775    1.0000 </r>
       <r>    5.7498    1.0000 </r>
       <r>    5.8107    1.0000 </r>
       <r>    5.8743    1.0000 </r>
       <r>    5.9053    1.0000 </r>
       <r>    5.9661    1.0000 </r>
       <r>    5.9796    1.0000 </r>
       <r>    6.0528    1.0000 </r>
       <r>    6.1274    1.0001 </r>
       <r>    6.1968    1.0004 </r>
       <r>    6.2319    1.0008 </r>
       <r>    6.3111    1.0043 </r>
       <r>    6.3480    1.0082 </r>
       <r>    6.3825    1.0137 </r>
       <r>    6.4422    1.0267 </r>
       <r>    6.5198    1.0340 </r>
       <r>    6.5837    0.9937 </r>
       <r>    6.6365    0.8964 </r>
       <r>    6.6902    0.7282 </r>
       <r>    6.7810    0.3565 </r>
       <r>    6.8369    0.1575 </r>
       <r>    6.9426   -0.0229 </r>
       <r>    7.0258   -0.0319 </r>
       <r>    7.1007   -0.0156 </r>
       <r>    7.2304   -0.0016 </r>
       <r>    7.2782   -0.0006 </r>
       <r>    7.3404   -0.0001 </r>
       <r>    7.4900   -0.0000 </r>
       <r>    7.7197   -0.0000 </r>
       <r>    7.8403   -0.0000 </r>
       <r>    7.9275   -0.0000 </r>
       <r>    8.0655   -0.0000 </r>
       <r>    8.1268   -0.0000 </r>
       <r>    8.3023   -0.0000 </r>
       <r>    8.5677   -0.0000 </r>
       <r>    8.5809   -0.0000 </r>
       <r>    8.7444   -0.0000 </r>
       <r>    8.7777   -0.0000 </r>
       <r>    8.8502   -0.0000 </r>
       <r>    8.8905   -0.0000 </r>
       <r>    8.9778   -0.0000 </r>
      </set>
     </set>
    </set>
   </array>
  </eigenvalues>
  <separator name="orbital magnetization" >
   <v name="MAGDIPOLOUT">      0.00000000      0.00000000      0.00000000</v>
  </separator>
  <dos>
   <i name="efermi">      6.74655878 </i>
   <total>
    <array>
     <dimension dim="1">gridpoints</dimension>
     <dimension dim="2">spin</dimension>
     <field>energy</field>
     <field>total</field>
     <field>integrated</field>
     <set>
      <set comment="spin 1">
       <r>   -50.3641     0.0000     0.0000 </r>
       <r>   -50.1561     0.0000     0.0000 </r>
       <r>   -49.9480     0.0000     0.0000 </r>
       <r>   -49.7400     0.0000     0.0000 </r>
       <r>   -49.5319     0.0000     0.0000 </r>
       <r>   -49.3239    -0.0000    -0.0000 </r>
       <r>   -49.1158    -0.0000    -0.0000 </r>
       <r>   -48.9077    -0.0000    -0.0000 </r>
       <r>   -48.6997    -0.0000    -0.0000 </r>
       <r>   -48.4916    -0.0000    -0.0000 </r>
       <r>   -48.2836    -0.0000    -0.0000 </r>
       <r>   -48.0755    -0.0034    -0.0007 </r>
       <r>   -47.8675    -0.1918    -0.0406 </r>
       <r>   -47.6594     0.0894    -0.0220 </r>
       <r>   -47.4514     9.7506     2.0066 </r>
       <r>   -47.2433    26.6305     7.5472 </r>
       <r>   -47.0353    19.4180    11.5872 </r>
       <r>   -46.8272     2.4568    12.0984 </r>
       <r>   -46.6191    -0.4464    12.0055 </r>
       <r>   -46.4111    -0.0263    12.0000 </r>
       <r>   -46.2030    -0.0001    12.0000 </r>
       <r>   -45.9950    -0.0000    12.0000 </r>
       <r>   -45.7869    -0.0000    12.0000 </r>
       <r>   -45.5789     0.0000    12.0000 </r>
       <r>   -45.3708     0.0000    12.0000 </r>
       <r>   -45.1628     0.0000    12.0000 </r>
       <r>   -44.9547     0.0000    12.0000 </r>
       <r>   -44.7467     0.0000    12.0000 </r>
       <r>   -44.5386     0.0000    12.0000 </r>
       <r>   -44.3305     0.0000    12.0000 </r>
       <r>   -44.1225     0.0000    12.0000 </r>
       <r>   -43.9144     0.0000    12.0000 </r>
       <r>   -43.7064     0.0000    12.0000 </r>
       <r>   -43.4983     0.0000    12.0000 </r>
       <r>   -43.2903     0.0000    12.0000 </r>
       <r>   -43.0822     0.0000    12.0000 </r>
       <r>   -42.8742     0.0000    12.0000 </r>
       <r>   -42.6661     0.0000    12.0000 </r>
       <r>   -42.4581     0.0000    12.0000 </r>
       <r>   -42.2500     0.0000    12.0000 </r>
       <r>   -42.0420     0.0000    12.0000 </r>
       <r>   -41.8339     0.0000    12.0000 </r>
       <r>   -41.6258     0.0000    12.0000 </r>
       <r>   -41.4178     0.0000    12.0000 </r>
       <r>   -41.2097     0.0000    12.0000 </r>
       <r>   -41.0017     0.0000    12.0000 </r>
       <r>   -40.7936     0.0000    12.0000 </r>
       <r>   -40.5856     0.0000    12.0000 </r>
       <r>   -40.3775     0.0000    12.0000 </r>
       <r>   -40.1695     0.0000    12.0000 </r>
       <r>   -39.9614     0.0000    12.0000 </r>
       <r>   -39.7534     0.0000    12.0000 </r>
       <r>   -39.5453     0.0000    12.0000 </r>
       <r>   -39.3372     0.0000    12.0000 </r>
       <r>   -39.1292     0.0000    12.0000 </r>
       <r>   -38.9211     0.0000    12.0000 </r>
       <r>   -38.7131     0.0000    12.0000 </r>
       <r>   -38.5050     0.0000    12.0000 </r>
       <r>   -38.2970     0.0000    12.0000 </r>
       <r>   -38.0889     0.0000    12.0000 </r>
       <r>   -37.8809     0.0000    12.0000 </r>
       <r>   -37.6728     0.0000    12.0000 </r>
       <r>   -37.4648     0.0000    12.0000 </r>
       <r>   -37.2567     0.0000    12.0000 </r>
       <r>   -37.0486     0.0000    12.0000 </r>
       <r>   -36.8406     0.0000    12.0000 </r>
       <r>   -36.6325     0.0000    12.0000 </r>
       <r>   -36.4245     0.0000    12.0000 </r>
       <r>   -36.2164     0.0000    12.0000 </r>
       <r>   -36.0084     0.0000    12.0000 </r>
       <r>   -35.8003     0.0000    12.0000 </r>
       <r>   -35.5923     0.0000    12.0000 </r>
       <r>   -35.3842     0.0000    12.0000 </r>
       <r>   -35.1762     0.0000    12.0000 </r>
       <r>   -34.9681     0.0000    12.0000 </r>
       <r>   -34.7601     0.0000    12.0000 </r>
       <r>   -34.5520     0.0000    12.0000 </r>
       <r>   -34.3439     0.0000    12.0000 </r>
       <r>   -34.1359     0.0000    12.0000 </r>
       <r>   -33.9278     0.0000    12.0000 </r>
       <r>   -33.7198     0.0000    12.0000 </r>
       <r>   -33.5117     0.0000    12.0000 </r>
       <r>   -33.3037     0.0000    12.0000 </r>
       <r>   -33.0956     0.0000    12.0000 </r>
       <r>   -32.8876     0.0000    12.0000 </r>
       <r>   -32.6795     0.0000    12.0000 </r>
       <r>   -32.4715     0.0000    12.0000 </r>
       <r>   -32.2634     0.0000    12.0000 </r>
       <r>   -32.0553     0.0000    12.0000 </r>
       <r>   -31.8473     0.0000    12.0000 </r>
       <r>   -31.6392     0.0000    12.0000 </r>
       <r>   -31.4312     0.0000    12.0000 </r>
       <r>   -31.2231     0.0000    12.0000 </r>
       <r>   -31.0151     0.0000    12.0000 </r>
       <r>   -30.8070     0.0000    12.0000 </r>
       <r>   -30.5990     0.0000    12.0000 </r>
       <r>   -30.3909     0.0000    12.0000 </r>
       <r>   -30.1829     0.0000    12.0000 </r>
       <r>   -29.9748     0.0000    12.0000 </r>
       <r>   -29.7668     0.0000    12.0000 </r>
       <r>   -29.5587     0.0000    12.0000 </r>
       <r>   -29.3506     0.0000    12.0000 </r>
       <r>   -29.1426     0.0000    12.0000 </r>
       <r>   -28.9345     0.0000    12.0000 </r>
       <r>   -28.7265     0.0000    12.0000 </r>
       <r>   -28.5184     0.0000    12.0000 </r>
       <r>   -28.3104     0.0000    12.0000 </r>
       <r>   -28.1023     0.0000    12.0000 </r>
       <r>   -27.8943     0.0000    12.0000 </r>
       <r>   -27.6862     0.0000    12.0000 </r>
       <r>   -27.4782     0.0000    12.0000 </r>
       <r>   -27.2701     0.0000    12.0000 </r>
       <r>   -27.0620     0.0000    12.0000 </r>
       <r>   -26.8540     0.0000    12.0000 </r>
       <r>   -26.6459     0.0000    12.0000 </r>
       <r>   -26.4379     0.0000    12.0000 </r>
       <r>   -26.2298     0.0000    12.0000 </r>
       <r>   -26.0218     0.0000    12.0000 </r>
       <r>   -25.8137    -0.0000    12.0000 </r>
       <r>   -25.6057    -0.0000    12.0000 </r>
       <r>   -25.3976    -0.0000    12.0000 </r>
       <r>   -25.1896    -0.0000    12.0000 </r>
       <r>   -24.9815    -0.0000    12.0000 </r>
       <r>   -24.7734    -0.0002    12.0000 </r>
       <r>   -24.5654    -0.0234    11.9951 </r>
       <r>   -24.3573    -0.1799    11.9577 </r>
       <r>   -24.1493     1.4744    12.2644 </r>
       <r>   -23.9412     9.0949    14.1567 </r>
       <r>   -23.7332    22.6176    18.8623 </r>
       <r>   -23.5251    35.7382    26.2978 </r>
       <r>   -23.3171    54.9465    37.7297 </r>
       <r>   -23.1090    27.5443    43.4604 </r>
       <r>   -22.9010    17.4105    47.0827 </r>
       <r>   -22.6929     4.9701    48.1168 </r>
       <r>   -22.4849    -0.5085    48.0110 </r>
       <r>   -22.2768    -0.0522    48.0001 </r>
       <r>   -22.0687    -0.0005    48.0000 </r>
       <r>   -21.8607    -0.0000    48.0000 </r>
       <r>   -21.6526    -0.0000    48.0000 </r>
       <r>   -21.4446    -0.0000    48.0000 </r>
       <r>   -21.2365     0.0000    48.0000 </r>
       <r>   -21.0285     0.0000    48.0000 </r>
       <r>   -20.8204     0.0000    48.0000 </r>
       <r>   -20.6124     0.0000    48.0000 </r>
       <r>   -20.4043     0.0000    48.0000 </r>
       <r>   -20.1963     0.0000    48.0000 </r>
       <r>   -19.9882     0.0000    48.0000 </r>
       <r>   -19.7801     0.0000    48.0000 </r>
       <r>   -19.5721     0.0000    48.0000 </r>
       <r>   -19.3640     0.0000    48.0000 </r>
       <r>   -19.1560     0.0000    48.0000 </r>
       <r>   -18.9479     0.0000    48.0000 </r>
       <r>   -18.7399     0.0000    48.0000 </r>
       <r>   -18.5318     0.0000    48.0000 </r>
       <r>   -18.3238     0.0000    48.0000 </r>
       <r>   -18.1157     0.0000    48.0000 </r>
       <r>   -17.9077     0.0000    48.0000 </r>
       <r>   -17.6996     0.0000    48.0000 </r>
       <r>   -17.4915     0.0000    48.0000 </r>
       <r>   -17.2835     0.0000    48.0000 </r>
       <r>   -17.0754     0.0000    48.0000 </r>
       <r>   -16.8674     0.0000    48.0000 </r>
       <r>   -16.6593     0.0000    48.0000 </r>
       <r>   -16.4513     0.0000    48.0000 </r>
       <r>   -16.2432     0.0000    48.0000 </r>
       <r>   -16.0352     0.0000    48.0000 </r>
       <r>   -15.8271     0.0000    48.0000 </r>
       <r>   -15.6191     0.0000    48.0000 </r>
       <r>   -15.4110     0.0000    48.0000 </r>
       <r>   -15.2030     0.0000    48.0000 </r>
       <r>   -14.9949     0.0000    48.0000 </r>
       <r>   -14.7868     0.0000    48.0000 </r>
       <r>   -14.5788     0.0000    48.0000 </r>
       <r>   -14.3707     0.0000    48.0000 </r>
       <r>   -14.1627     0.0000    48.0000 </r>
       <r>   -13.9546     0.0000    48.0000 </r>
       <r>   -13.7466     0.0000    48.0000 </r>
       <r>   -13.5385     0.0000    48.0000 </r>
       <r>   -13.3305     0.0000    48.0000 </r>
       <r>   -13.1224     0.0000    48.0000 </r>
       <r>   -12.9144     0.0000    48.0000 </r>
       <r>   -12.7063     0.0000    48.0000 </r>
       <r>   -12.4982     0.0000    48.0000 </r>
       <r>   -12.2902     0.0000    48.0000 </r>
       <r>   -12.0821     0.0000    48.0000 </r>
       <r>   -11.8741     0.0000    48.0000 </r>
       <r>   -11.6660     0.0000    48.0000 </r>
       <r>   -11.4580     0.0000    48.0000 </r>
       <r>   -11.2499     0.0000    48.0000 </r>
       <r>   -11.0419     0.0000    48.0000 </r>
       <r>   -10.8338     0.0000    48.0000 </r>
       <r>   -10.6258     0.0000    48.0000 </r>
       <r>   -10.4177     0.0000    48.0000 </r>
       <r>   -10.2096     0.0000    48.0000 </r>
       <r>   -10.0016     0.0000    48.0000 </r>
       <r>    -9.7935     0.0000    48.0000 </r>
       <r>    -9.5855     0.0000    48.0000 </r>
       <r>    -9.3774     0.0000    48.0000 </r>
       <r>    -9.1694     0.0000    48.0000 </r>
       <r>    -8.9613     0.0000    48.0000 </r>
       <r>    -8.7533     0.0000    48.0000 </r>
       <r>    -8.5452     0.0000    48.0000 </r>
       <r>    -8.3372     0.0000    48.0000 </r>
       <r>    -8.1291     0.0000    48.0000 </r>
       <r>    -7.9211     0.0000    48.0000 </r>
       <r>    -7.7130     0.0000    48.0000 </r>
       <r>    -7.5049     0.0000    48.0000 </r>
       <r>    -7.2969     0.0000    48.0000 </r>
       <r>    -7.0888     0.0000    48.0000 </r>
       <r>    -6.8808     0.0000    48.0000 </r>
       <r>    -6.6727     0.0000    48.0000 </r>
       <r>    -6.4647     0.0000    48.0000 </r>
       <r>    -6.2566     0.0000    48.0000 </r>
       <r>    -6.0486     0.0000    48.0000 </r>
       <r>    -5.8405     0.0000    48.0000 </r>
       <r>    -5.6325     0.0000    48.0000 </r>
       <r>    -5.4244     0.0000    48.0000 </r>
       <r>    -5.2163     0.0000    48.0000 </r>
       <r>    -5.0083     0.0000    48.0000 </r>
       <r>    -4.8002     0.0000    48.0000 </r>
       <r>    -4.5922     0.0000    48.0000 </r>
       <r>    -4.3841     0.0000    48.0000 </r>
       <r>    -4.1761     0.0000    48.0000 </r>
       <r>    -3.9680     0.0000    48.0000 </r>
       <r>    -3.7600     0.0000    48.0000 </r>
       <r>    -3.5519     0.0000    48.0000 </r>
       <r>    -3.3439     0.0000    48.0000 </r>
       <r>    -3.1358     0.0000    48.0000 </r>
       <r>    -2.9278     0.0000    48.0000 </r>
       <r>    -2.7197     0.0000    48.0000 </r>
       <r>    -2.5116     0.0000    48.0000 </r>
       <r>    -2.3036    -0.0000    48.0000 </r>
       <r>    -2.0955    -0.0000    48.0000 </r>
       <r>    -1.8875    -0.0000    48.0000 </r>
       <r>    -1.6794    -0.0000    48.0000 </r>
       <r>    -1.4714    -0.0000    48.0000 </r>
       <r>    -1.2633    -0.0000    48.0000 </r>
       <r>    -1.0553    -0.0002    48.0000 </r>
       <r>    -0.8472    -0.0070    47.9985 </r>
       <r>    -0.6392     0.0057    47.9997 </r>
       <r>    -0.4311     0.3362    48.0697 </r>
       <r>    -0.2230     1.0016    48.2780 </r>
       <r>    -0.0150     1.8311    48.6590 </r>
       <r>     0.1931     1.8696    49.0480 </r>
       <r>     0.4011     1.3944    49.3381 </r>
       <r>     0.6092     1.9693    49.7478 </r>
       <r>     0.8172     3.0600    50.3845 </r>
       <r>     1.0253     3.2724    51.0653 </r>
       <r>     1.2333     2.8398    51.6562 </r>
       <r>     1.4414     3.6254    52.4105 </r>
       <r>     1.6494     4.4811    53.3428 </r>
       <r>     1.8575     5.3680    54.4596 </r>
       <r>     2.0656     7.0946    55.9357 </r>
       <r>     2.2736     9.5922    57.9314 </r>
       <r>     2.4817    14.8369    61.0182 </r>
       <r>     2.6897    18.6886    64.9065 </r>
       <r>     2.8978    21.4799    69.3755 </r>
       <r>     3.1058    24.9605    74.5686 </r>
       <r>     3.3139    27.9790    80.3898 </r>
       <r>     3.5219    28.5336    86.3263 </r>
       <r>     3.7300    30.0751    92.5835 </r>
       <r>     3.9380    30.9236    99.0173 </r>
       <r>     4.1461    30.5931   105.3823 </r>
       <r>     4.3541    26.1016   110.8129 </r>
       <r>     4.5622    27.1051   116.4522 </r>
       <r>     4.7703    35.1762   123.7708 </r>
       <r>     4.9783    38.8592   131.8556 </r>
       <r>     5.1864    39.8564   140.1479 </r>
       <r>     5.3944    38.0026   148.0545 </r>
       <r>     5.6025    37.0828   155.7697 </r>
       <r>     5.8105    36.6731   163.3997 </r>
       <r>     6.0186    38.0180   171.3095 </r>
       <r>     6.2266    38.1423   179.2452 </r>
       <r>     6.4347    38.5463   187.2649 </r>
       <r>     6.6427    35.3758   194.6250 </r>
       <r>     6.8508    31.7087   201.2221 </r>
       <r>     7.0589    26.8920   206.8171 </r>
       <r>     7.2669    21.6284   211.3170 </r>
       <r>     7.4750    17.2779   214.9118 </r>
       <r>     7.6830    15.1821   218.0705 </r>
       <r>     7.8911    16.0743   221.4148 </r>
       <r>     8.0991    19.7649   225.5270 </r>
       <r>     8.3072    22.0164   230.1076 </r>
       <r>     8.5152    20.2387   234.3183 </r>
       <r>     8.7233    14.6278   237.3617 </r>
       <r>     8.9313     8.3502   239.0990 </r>
       <r>     9.1394     3.8275   239.8953 </r>
       <r>     9.3475     0.5871   240.0175 </r>
       <r>     9.5555    -0.0748   240.0019 </r>
       <r>     9.7636    -0.0090   240.0000 </r>
       <r>     9.9716    -0.0001   240.0000 </r>
       <r>    10.1797    -0.0000   240.0000 </r>
       <r>    10.3877    -0.0000   240.0000 </r>
       <r>    10.5958    -0.0000   240.0000 </r>
       <r>    10.8038     0.0000   240.0000 </r>
       <r>    11.0119     0.0000   240.0000 </r>
       <r>    11.2199     0.0000   240.0000 </r>
       <r>    11.4280     0.0000   240.0000 </r>
       <r>    11.6360     0.0000   240.0000 </r>
       <r>    11.8441     0.0000   240.0000 </r>
       <r>    12.0522     0.0000   240.0000 </r>
      </set>
     </set>
    </array>
   </total>
  </dos>
 </calculation>
 <structure name="finalpos" >
  <crystal>
   <varray name="basis" >
    <v>      -3.14946957      -3.13998421      -3.18225917 </v>
    <v>       1.58287758       1.55584754      -7.94982368 </v>
    <v>       8.04979639      -8.00840550      -1.60888786 </v>
   </varray>
   <i name="volume">    481.53584916 </i>
   <varray name="rec_basis" >
    <v>      -0.13741157      -0.12760792      -0.05233376 </v>
    <v>       0.04243285       0.06372045      -0.10486958 </v>
    <v>       0.06212088      -0.06245611       0.00014561 </v>
   </varray>
  </crystal>
  <varray name="positions" >
   <v>       0.95655131       0.93411180       0.39607710 </v>
   <v>       0.63071905       0.26428658       0.40300121 </v>
   <v>       0.51109246       0.01581252      -0.01769382 </v>
   <v>       0.00959135       0.00463204       0.00321424 </v>
   <v>       0.09233896       0.20185058       0.79898165 </v>
   <v>       0.04258992       0.06580640       0.59442014 </v>
   <v>       0.90222532       0.80176259       0.20027743 </v>
   <v>       0.80343919       0.59329906       0.39988434 </v>
   <v>       0.73288270       0.46967856       0.20085309 </v>
   <v>       0.66656134       0.34343009      -0.00106933 </v>
   <v>       0.36640924       0.72125260       0.60206991 </v>
   <v>       0.13156298       0.27083227       0.40112527 </v>
   <v>       0.83403925       0.67100454      -0.00026465 </v>
   <v>       0.91292169       0.88148973       0.79634283 </v>
   <v>       0.56758511       0.13445874       0.19485299 </v>
   <v>       0.40964594       0.79640205       0.19706427 </v>
   <v>       0.42883962       0.85085373       0.79513082 </v>
   <v>       0.30029630       0.60109101       0.40361502 </v>
   <v>       0.85476330       0.73198798       0.59747673 </v>
   <v>       0.46601187       0.92800092       0.40513831 </v>
   <v>       0.16519975       0.34081179       0.00716993 </v>
   <v>       0.28831809       0.50963210       0.80045038 </v>
   <v>       0.19030485       0.39360303       0.59524852 </v>
   <v>       0.06273431       0.14711228       0.20856818 </v>
   <v>       0.77705490       0.52354212       0.80167968 </v>
   <v>       0.68972810       0.40322479       0.60734677 </v>
   <v>       0.53851534       0.06801104       0.60913490 </v>
   <v>       0.33642839       0.65994421      -0.00083831 </v>
   <v>       0.23164936       0.47207480       0.20074238 </v>
  </varray>
 </structure>
</modeling>
