  29  29   0   0
  0.1679057E+02  0.5525242E-09  0.8287863E-09  0.1139058E-08  0.5000000E-15
  1.000000000000000E-004
  CAR 
 SQS with 1 vacancy for VFE and VRV      
     12.10695842    -50.18588646  301      6.71363983      1.00000000
    -50.186  0.0000E+00  0.0000E+00
    -49.978  0.0000E+00  0.0000E+00
    -49.771  0.0000E+00  0.0000E+00
    -49.563  0.0000E+00  0.0000E+00
    -49.355  0.0000E+00  0.0000E+00
    -49.148 -0.4265E-35 -0.8857E-36
    -48.940 -0.1825E-27 -0.3789E-28
    -48.732 -0.8163E-21 -0.1695E-21
    -48.525 -0.4069E-15 -0.8450E-16
    -48.317 -0.2330E-10 -0.4838E-11
    -48.109 -0.1490E-06 -0.3095E-07
    -47.902 -0.1026E-03 -0.2134E-04
    -47.694 -0.6710E-02 -0.1415E-02
    -47.487  0.6799E-03 -0.1273E-02
    -47.279  0.3960E+00  0.8095E-01
    -47.071  0.6035E+00  0.2063E+00
    -46.864  0.1810E+00  0.2438E+00
    -46.656 -0.1646E-01  0.2404E+00
    -46.448 -0.1966E-02  0.2400E+00
    -46.241 -0.1306E-04  0.2400E+00
    -46.033 -0.8546E-08  0.2400E+00
    -45.825 -0.6038E-12  0.2400E+00
    -45.618  0.0000E+00  0.2400E+00
    -45.410  0.0000E+00  0.2400E+00
    -45.202  0.0000E+00  0.2400E+00
    -44.995  0.0000E+00  0.2400E+00
    -44.787  0.0000E+00  0.2400E+00
    -44.580  0.0000E+00  0.2400E+00
    -44.372  0.0000E+00  0.2400E+00
    -44.164  0.0000E+00  0.2400E+00
    -43.957  0.0000E+00  0.2400E+00
    -43.749  0.0000E+00  0.2400E+00
    -43.541  0.0000E+00  0.2400E+00
    -43.334  0.0000E+00  0.2400E+00
    -43.126  0.0000E+00  0.2400E+00
    -42.918  0.0000E+00  0.2400E+00
    -42.711  0.0000E+00  0.2400E+00
    -42.503  0.0000E+00  0.2400E+00
    -42.295  0.0000E+00  0.2400E+00
    -42.088  0.0000E+00  0.2400E+00
    -41.880  0.0000E+00  0.2400E+00
    -41.673  0.0000E+00  0.2400E+00
    -41.465  0.0000E+00  0.2400E+00
    -41.257  0.0000E+00  0.2400E+00
    -41.050  0.0000E+00  0.2400E+00
    -40.842  0.0000E+00  0.2400E+00
    -40.634  0.0000E+00  0.2400E+00
    -40.427  0.0000E+00  0.2400E+00
    -40.219  0.0000E+00  0.2400E+00
    -40.011  0.0000E+00  0.2400E+00
    -39.804  0.0000E+00  0.2400E+00
    -39.596  0.0000E+00  0.2400E+00
    -39.388  0.0000E+00  0.2400E+00
    -39.181  0.0000E+00  0.2400E+00
    -38.973  0.0000E+00  0.2400E+00
    -38.766  0.0000E+00  0.2400E+00
    -38.558  0.0000E+00  0.2400E+00
    -38.350  0.0000E+00  0.2400E+00
    -38.143  0.0000E+00  0.2400E+00
    -37.935  0.0000E+00  0.2400E+00
    -37.727  0.0000E+00  0.2400E+00
    -37.520  0.0000E+00  0.2400E+00
    -37.312  0.0000E+00  0.2400E+00
    -37.104  0.0000E+00  0.2400E+00
    -36.897  0.0000E+00  0.2400E+00
    -36.689  0.0000E+00  0.2400E+00
    -36.481  0.0000E+00  0.2400E+00
    -36.274  0.0000E+00  0.2400E+00
    -36.066  0.0000E+00  0.2400E+00
    -35.859  0.0000E+00  0.2400E+00
    -35.651  0.0000E+00  0.2400E+00
    -35.443  0.0000E+00  0.2400E+00
    -35.236  0.0000E+00  0.2400E+00
    -35.028  0.0000E+00  0.2400E+00
    -34.820  0.0000E+00  0.2400E+00
    -34.613  0.0000E+00  0.2400E+00
    -34.405  0.0000E+00  0.2400E+00
    -34.197  0.0000E+00  0.2400E+00
    -33.990  0.0000E+00  0.2400E+00
    -33.782  0.0000E+00  0.2400E+00
    -33.574  0.0000E+00  0.2400E+00
    -33.367  0.0000E+00  0.2400E+00
    -33.159  0.0000E+00  0.2400E+00
    -32.952  0.0000E+00  0.2400E+00
    -32.744  0.0000E+00  0.2400E+00
    -32.536  0.0000E+00  0.2400E+00
    -32.329  0.0000E+00  0.2400E+00
    -32.121  0.0000E+00  0.2400E+00
    -31.913  0.0000E+00  0.2400E+00
    -31.706  0.0000E+00  0.2400E+00
    -31.498  0.0000E+00  0.2400E+00
    -31.290  0.0000E+00  0.2400E+00
    -31.083  0.0000E+00  0.2400E+00
    -30.875  0.0000E+00  0.2400E+00
    -30.667  0.0000E+00  0.2400E+00
    -30.460  0.0000E+00  0.2400E+00
    -30.252  0.0000E+00  0.2400E+00
    -30.045  0.0000E+00  0.2400E+00
    -29.837  0.0000E+00  0.2400E+00
    -29.629  0.0000E+00  0.2400E+00
    -29.422  0.0000E+00  0.2400E+00
    -29.214  0.0000E+00  0.2400E+00
    -29.006  0.0000E+00  0.2400E+00
    -28.799  0.0000E+00  0.2400E+00
    -28.591  0.0000E+00  0.2400E+00
    -28.383  0.0000E+00  0.2400E+00
    -28.176  0.0000E+00  0.2400E+00
    -27.968  0.0000E+00  0.2400E+00
    -27.760  0.0000E+00  0.2400E+00
    -27.553  0.0000E+00  0.2400E+00
    -27.345  0.0000E+00  0.2400E+00
    -27.138  0.0000E+00  0.2400E+00
    -26.930  0.0000E+00  0.2400E+00
    -26.722  0.0000E+00  0.2400E+00
    -26.515  0.0000E+00  0.2400E+00
    -26.307  0.0000E+00  0.2400E+00
    -26.099  0.0000E+00  0.2400E+00
    -25.892  0.0000E+00  0.2400E+00
    -25.684 -0.5403E-30  0.2400E+00
    -25.476 -0.4008E-23  0.2400E+00
    -25.269 -0.3379E-17  0.2400E+00
    -25.061 -0.3107E-12  0.2400E+00
    -24.853 -0.3299E-08  0.2400E+00
    -24.646 -0.3969E-05  0.2400E+00
    -24.438 -0.5535E-03  0.2399E+00
    -24.231 -0.7038E-02  0.2384E+00
    -24.023  0.5380E-01  0.2496E+00
    -23.815  0.2442E+00  0.3003E+00
    -23.608  0.4354E+00  0.3907E+00
    -23.400  0.9506E+00  0.5881E+00
    -23.192  0.1040E+01  0.8041E+00
    -22.985  0.4962E+00  0.9071E+00
    -22.777  0.2288E+00  0.9546E+00
    -22.569  0.3089E-01  0.9610E+00
    -22.362 -0.4429E-02  0.9601E+00
    -22.154 -0.5001E-03  0.9600E+00
    -21.946 -0.4897E-05  0.9600E+00
    -21.739 -0.4977E-08  0.9600E+00
    -21.531 -0.5450E-12  0.9600E+00
    -21.324 -0.8555E-17  0.9600E+00
    -21.116  0.0000E+00  0.9600E+00
    -20.908  0.0000E+00  0.9600E+00
    -20.701  0.0000E+00  0.9600E+00
    -20.493  0.0000E+00  0.9600E+00
    -20.285  0.0000E+00  0.9600E+00
    -20.078  0.0000E+00  0.9600E+00
    -19.870  0.0000E+00  0.9600E+00
    -19.662  0.0000E+00  0.9600E+00
    -19.455  0.0000E+00  0.9600E+00
    -19.247  0.0000E+00  0.9600E+00
    -19.039  0.0000E+00  0.9600E+00
    -18.832  0.0000E+00  0.9600E+00
    -18.624  0.0000E+00  0.9600E+00
    -18.417  0.0000E+00  0.9600E+00
    -18.209  0.0000E+00  0.9600E+00
    -18.001  0.0000E+00  0.9600E+00
    -17.794  0.0000E+00  0.9600E+00
    -17.586  0.0000E+00  0.9600E+00
    -17.378  0.0000E+00  0.9600E+00
    -17.171  0.0000E+00  0.9600E+00
    -16.963  0.0000E+00  0.9600E+00
    -16.755  0.0000E+00  0.9600E+00
    -16.548  0.0000E+00  0.9600E+00
    -16.340  0.0000E+00  0.9600E+00
    -16.132  0.0000E+00  0.9600E+00
    -15.925  0.0000E+00  0.9600E+00
    -15.717  0.0000E+00  0.9600E+00
    -15.510  0.0000E+00  0.9600E+00
    -15.302  0.0000E+00  0.9600E+00
    -15.094  0.0000E+00  0.9600E+00
    -14.887  0.0000E+00  0.9600E+00
    -14.679  0.0000E+00  0.9600E+00
    -14.471  0.0000E+00  0.9600E+00
    -14.264  0.0000E+00  0.9600E+00
    -14.056  0.0000E+00  0.9600E+00
    -13.848  0.0000E+00  0.9600E+00
    -13.641  0.0000E+00  0.9600E+00
    -13.433  0.0000E+00  0.9600E+00
    -13.225  0.0000E+00  0.9600E+00
    -13.018  0.0000E+00  0.9600E+00
    -12.810  0.0000E+00  0.9600E+00
    -12.603  0.0000E+00  0.9600E+00
    -12.395  0.0000E+00  0.9600E+00
    -12.187  0.0000E+00  0.9600E+00
    -11.980  0.0000E+00  0.9600E+00
    -11.772  0.0000E+00  0.9600E+00
    -11.564  0.0000E+00  0.9600E+00
    -11.357  0.0000E+00  0.9600E+00
    -11.149  0.0000E+00  0.9600E+00
    -10.941  0.0000E+00  0.9600E+00
    -10.734  0.0000E+00  0.9600E+00
    -10.526  0.0000E+00  0.9600E+00
    -10.318  0.0000E+00  0.9600E+00
    -10.111  0.0000E+00  0.9600E+00
     -9.903  0.0000E+00  0.9600E+00
     -9.696  0.0000E+00  0.9600E+00
     -9.488  0.0000E+00  0.9600E+00
     -9.280  0.0000E+00  0.9600E+00
     -9.073  0.0000E+00  0.9600E+00
     -8.865  0.0000E+00  0.9600E+00
     -8.657  0.0000E+00  0.9600E+00
     -8.450  0.0000E+00  0.9600E+00
     -8.242  0.0000E+00  0.9600E+00
     -8.034  0.0000E+00  0.9600E+00
     -7.827  0.0000E+00  0.9600E+00
     -7.619  0.0000E+00  0.9600E+00
     -7.411  0.0000E+00  0.9600E+00
     -7.204  0.0000E+00  0.9600E+00
     -6.996  0.0000E+00  0.9600E+00
     -6.789  0.0000E+00  0.9600E+00
     -6.581  0.0000E+00  0.9600E+00
     -6.373  0.0000E+00  0.9600E+00
     -6.166  0.0000E+00  0.9600E+00
     -5.958  0.0000E+00  0.9600E+00
     -5.750  0.0000E+00  0.9600E+00
     -5.543  0.0000E+00  0.9600E+00
     -5.335  0.0000E+00  0.9600E+00
     -5.127  0.0000E+00  0.9600E+00
     -4.920  0.0000E+00  0.9600E+00
     -4.712  0.0000E+00  0.9600E+00
     -4.504  0.0000E+00  0.9600E+00
     -4.297  0.0000E+00  0.9600E+00
     -4.089  0.0000E+00  0.9600E+00
     -3.882  0.0000E+00  0.9600E+00
     -3.674  0.0000E+00  0.9600E+00
     -3.466  0.0000E+00  0.9600E+00
     -3.259  0.0000E+00  0.9600E+00
     -3.051  0.0000E+00  0.9600E+00
     -2.843  0.0000E+00  0.9600E+00
     -2.636  0.0000E+00  0.9600E+00
     -2.428 -0.1017E-36  0.9600E+00
     -2.220 -0.3479E-29  0.9600E+00
     -2.013 -0.1349E-22  0.9600E+00
     -1.805 -0.5824E-17  0.9600E+00
     -1.597 -0.2929E-12  0.9600E+00
     -1.390 -0.1676E-08  0.9600E+00
     -1.182 -0.1076E-05  0.9600E+00
     -0.975 -0.7288E-04  0.9600E+00
     -0.767 -0.2334E-03  0.9599E+00
     -0.559  0.4349E-02  0.9608E+00
     -0.352  0.1724E-01  0.9644E+00
     -0.144  0.2949E-01  0.9705E+00
      0.064  0.3658E-01  0.9781E+00
      0.271  0.2287E-01  0.9829E+00
      0.479  0.4318E-01  0.9919E+00
      0.687  0.6969E-01  0.1006E+01
      0.894  0.5852E-01  0.1018E+01
      1.102  0.5184E-01  0.1029E+01
      1.310  0.7772E-01  0.1045E+01
      1.517  0.8800E-01  0.1064E+01
      1.725  0.7293E-01  0.1079E+01
      1.932  0.1155E+00  0.1103E+01
      2.140  0.1751E+00  0.1139E+01
      2.348  0.2315E+00  0.1187E+01
      2.555  0.3247E+00  0.1255E+01
      2.763  0.3574E+00  0.1329E+01
      2.971  0.4725E+00  0.1427E+01
      3.178  0.5584E+00  0.1543E+01
      3.386  0.5746E+00  0.1662E+01
      3.594  0.5635E+00  0.1779E+01
      3.801  0.6028E+00  0.1904E+01
      4.009  0.5939E+00  0.2028E+01
      4.217  0.5507E+00  0.2142E+01
      4.424  0.4758E+00  0.2241E+01
      4.632  0.5478E+00  0.2355E+01
      4.839  0.7647E+00  0.2513E+01
      5.047  0.8461E+00  0.2689E+01
      5.255  0.8093E+00  0.2857E+01
      5.462  0.7467E+00  0.3012E+01
      5.670  0.7193E+00  0.3161E+01
      5.878  0.7380E+00  0.3315E+01
      6.085  0.7854E+00  0.3478E+01
      6.293  0.7950E+00  0.3643E+01
      6.501  0.7960E+00  0.3808E+01
      6.708  0.7141E+00  0.3956E+01
      6.916  0.6189E+00  0.4085E+01
      7.124  0.4749E+00  0.4184E+01
      7.331  0.3527E+00  0.4257E+01
      7.539  0.3249E+00  0.4324E+01
      7.746  0.2977E+00  0.4386E+01
      7.954  0.3280E+00  0.4454E+01
      8.162  0.3624E+00  0.4529E+01
      8.369  0.4090E+00  0.4614E+01
      8.577  0.3875E+00  0.4695E+01
      8.785  0.2716E+00  0.4751E+01
      8.992  0.1567E+00  0.4784E+01
      9.200  0.6942E-01  0.4798E+01
      9.408  0.1041E-01  0.4800E+01
      9.615 -0.1358E-02  0.4800E+01
      9.823 -0.1638E-03  0.4800E+01
     10.031 -0.1881E-05  0.4800E+01
     10.238 -0.2549E-08  0.4800E+01
     10.446 -0.4008E-12  0.4800E+01
     10.653 -0.7528E-17  0.4800E+01
     10.861  0.0000E+00  0.4800E+01
     11.069  0.0000E+00  0.4800E+01
     11.276  0.0000E+00  0.4800E+01
     11.484  0.0000E+00  0.4800E+01
     11.692  0.0000E+00  0.4800E+01
     11.899  0.0000E+00  0.4800E+01
     12.107  0.0000E+00  0.4800E+01
