   29   29   50    1
  0.1679057E+02  0.5525242E-09  0.8287863E-09  0.1139058E-08  0.5000000E-15
  1.000000000000000E-004
  CAR 
 SQS with 1 vacancy for VFE and VRV      
    198     63    120
 
  0.0000000E+00  0.0000000E+00  0.0000000E+00  0.8000000E-02
    1      -47.354394   1.000000
    2      -47.331544   1.000000
    3      -47.240825   1.000000
    4      -47.221817   1.000000
    5      -47.090265   1.000000
    6      -47.066037   1.000000
    7      -24.043678   1.000000
    8      -23.907716   1.000000
    9      -23.717912   1.000000
   10      -23.679506   1.000000
   11      -23.519435   1.000000
   12      -23.501530   1.000000
   13      -23.497041   1.000000
   14      -23.419182   1.000000
   15      -23.411584   1.000000
   16      -23.392966   1.000000
   17      -23.320668   1.000000
   18      -23.277087   1.000000
   19      -23.257757   1.000000
   20      -23.240588   1.000000
   21      -23.178651   1.000000
   22      -23.035900   1.000000
   23      -22.947067   1.000000
   24      -22.744687   1.000000
   25       -0.643367   1.000000
   26        0.717273   1.000000
   27        1.136033   1.000000
   28        1.972699   1.000000
   29        1.982255   1.000000
   30        2.058185   1.000000
   31        2.270394   1.000000
   32        2.402655   1.000000
   33        2.470732   1.000000
   34        2.562256   1.000000
   35        2.606403   1.000000
   36        2.650516   1.000000
   37        2.765182   1.000000
   38        2.842019   1.000000
   39        2.969985   1.000000
   40        3.063414   1.000000
   41        3.115664   1.000000
   42        3.151679   1.000000
   43        3.223973   1.000000
   44        3.333489   1.000000
   45        3.341890   1.000000
   46        3.421344   1.000000
   47        3.458905   1.000000
   48        3.579633   1.000000
   49        3.655061   1.000000
   50        3.726980   1.000000
   51        3.820321   1.000000
   52        3.867657   1.000000
   53        3.937452   1.000000
   54        4.039924   1.000000
   55        4.093324   1.000000
   56        4.208559   1.000000
   57        4.256317   1.000000
   58        4.467521   1.000000
   59        4.484506   1.000000
   60        4.548347   1.000000
   61        4.577700   1.000000
   62        4.620908   1.000000
   63        4.696216   1.000000
   64        4.832474   1.000000
   65        4.839909   1.000000
   66        4.860038   1.000000
   67        4.910578   1.000000
   68        4.960472   1.000000
   69        5.013025   1.000000
   70        5.057226   1.000000
   71        5.084936   1.000000
   72        5.135389   1.000000
   73        5.211343   1.000000
   74        5.280241   1.000000
   75        5.310803   1.000000
   76        5.403642   1.000000
   77        5.509847   1.000000
   78        5.552999   1.000000
   79        5.609997   1.000000
   80        5.709343   1.000000
   81        5.832697   1.000000
   82        5.894015   1.000000
   83        5.924636   1.000000
   84        5.979667   1.000001
   85        6.036217   1.000009
   86        6.092239   1.000051
   87        6.136632   1.000175
   88        6.232149   1.001733
   89        6.252798   1.002655
   90        6.341405   1.012193
   91        6.409331   1.026681
   92        6.435827   1.032165
   93        6.554587   0.988825
   94        6.619257   0.854285
   95        6.710084   0.515045
   96        6.771736   0.265295
   97        6.832900   0.081653
   98        6.909139  -0.022631
   99        6.943278  -0.034458
  100        7.004256  -0.029683
  101        7.141588  -0.004960
  102        7.219270  -0.001020
  103        7.238437  -0.000654
  104        7.475618  -0.000000
  105        7.535380  -0.000000
  106        7.695568  -0.000000
  107        7.807594  -0.000000
  108        7.882815  -0.000000
  109        7.966982  -0.000000
  110        8.349605  -0.000000
  111        8.442079  -0.000000
  112        8.513335  -0.000000
  113        8.615484  -0.000000
  114        8.661849  -0.000000
  115        8.844586  -0.000000
  116        8.872410  -0.000000
  117        8.995249  -0.000000
  118        9.066560  -0.000000
  119        9.112397  -0.000000
  120        9.125211  -0.000000
 
  0.2000000E+00 -0.1387779E-16  0.0000000E+00  0.1600000E-01
    1      -47.351274   1.000000
    2      -47.326314   1.000000
    3      -47.240074   1.000000
    4      -47.221065   1.000000
    5      -47.090302   1.000000
    6      -47.074768   1.000000
    7      -23.948349   1.000000
    8      -23.895899   1.000000
    9      -23.712117   1.000000
   10      -23.676632   1.000000
   11      -23.522426   1.000000
   12      -23.503599   1.000000
   13      -23.493630   1.000000
   14      -23.424889   1.000000
   15      -23.417167   1.000000
   16      -23.394746   1.000000
   17      -23.321885   1.000000
   18      -23.279865   1.000000
   19      -23.262269   1.000000
   20      -23.247873   1.000000
   21      -23.182552   1.000000
   22      -23.042497   1.000000
   23      -22.949409   1.000000
   24      -22.868777   1.000000
   25       -0.323809   1.000000
   26        0.985145   1.000000
   27        1.397402   1.000000
   28        2.039661   1.000000
   29        2.225545   1.000000
   30        2.292051   1.000000
   31        2.409610   1.000000
   32        2.533849   1.000000
   33        2.630291   1.000000
   34        2.723453   1.000000
   35        2.820951   1.000000
   36        2.873193   1.000000
   37        2.961408   1.000000
   38        3.032404   1.000000
   39        3.118385   1.000000
   40        3.148420   1.000000
   41        3.240343   1.000000
   42        3.284537   1.000000
   43        3.319509   1.000000
   44        3.388867   1.000000
   45        3.432383   1.000000
   46        3.571837   1.000000
   47        3.657444   1.000000
   48        3.707079   1.000000
   49        3.822460   1.000000
   50        3.878024   1.000000
   51        3.930911   1.000000
   52        3.969180   1.000000
   53        4.043653   1.000000
   54        4.142353   1.000000
   55        4.167776   1.000000
   56        4.288933   1.000000
   57        4.353459   1.000000
   58        4.472475   1.000000
   59        4.523518   1.000000
   60        4.601968   1.000000
   61        4.670210   1.000000
   62        4.793938   1.000000
   63        4.820234   1.000000
   64        4.849442   1.000000
   65        4.890678   1.000000
   66        4.968405   1.000000
   67        5.012526   1.000000
   68        5.046674   1.000000
   69        5.095023   1.000000
   70        5.151010   1.000000
   71        5.212206   1.000000
   72        5.236034   1.000000
   73        5.298372   1.000000
   74        5.335904   1.000000
   75        5.382504   1.000000
   76        5.427115   1.000000
   77        5.451730   1.000000
   78        5.507979   1.000000
   79        5.570968   1.000000
   80        5.637242   1.000000
   81        5.753159   1.000000
   82        5.847905   1.000000
   83        5.881797   1.000000
   84        5.942939   1.000000
   85        5.989186   1.000002
   86        6.070706   1.000027
   87        6.143530   1.000210
   88        6.167023   1.000384
   89        6.211687   1.001108
   90        6.285454   1.004939
   91        6.299760   1.006348
   92        6.380502   1.020066
   93        6.431263   1.031329
   94        6.472427   1.035403
   95        6.503847   1.029491
   96        6.611819   0.875058
   97        6.691525   0.592946
   98        6.763758   0.295136
   99        6.785489   0.216636
  100        6.865404   0.021251
  101        6.902357  -0.018239
  102        6.985463  -0.033156
  103        7.024975  -0.025071
  104        7.121096  -0.007074
  105        7.179896  -0.002380
  106        7.400087  -0.000007
  107        7.511507  -0.000000
  108        7.638997  -0.000000
  109        7.699403  -0.000000
  110        7.822132  -0.000000
  111        7.955333  -0.000000
  112        8.037628  -0.000000
  113        8.097644  -0.000000
  114        8.247414  -0.000000
  115        8.344553  -0.000000
  116        8.428155  -0.000000
  117        8.498596  -0.000000
  118        8.550721  -0.000000
  119        8.709456  -0.000000
  120        8.788800  -0.000000
 
  0.4000000E+00 -0.2775558E-16  0.0000000E+00  0.1600000E-01
    1      -47.347742   1.000000
    2      -47.315267   1.000000
    3      -47.238769   1.000000
    4      -47.219619   1.000000
    5      -47.090760   1.000000
    6      -47.089885   1.000000
    7      -23.917295   1.000000
    8      -23.727530   1.000000
    9      -23.681813   1.000000
   10      -23.614196   1.000000
   11      -23.529030   1.000000
   12      -23.511597   1.000000
   13      -23.479932   1.000000
   14      -23.434558   1.000000
   15      -23.426006   1.000000
   16      -23.396181   1.000000
   17      -23.324090   1.000000
   18      -23.283915   1.000000
   19      -23.275172   1.000000
   20      -23.260121   1.000000
   21      -23.218478   1.000000
   22      -23.146820   1.000000
   23      -23.052514   1.000000
   24      -22.948618   1.000000
   25        0.502187   1.000000
   26        1.438323   1.000000
   27        1.935356   1.000000
   28        2.127204   1.000000
   29        2.344037   1.000000
   30        2.500468   1.000000
   31        2.612975   1.000000
   32        2.792552   1.000000
   33        2.900857   1.000000
   34        3.036647   1.000000
   35        3.111351   1.000000
   36        3.185596   1.000000
   37        3.211561   1.000000
   38        3.253866   1.000000
   39        3.385670   1.000000
   40        3.447658   1.000000
   41        3.498697   1.000000
   42        3.586328   1.000000
   43        3.635393   1.000000
   44        3.707524   1.000000
   45        3.742127   1.000000
   46        3.837028   1.000000
   47        3.866278   1.000000
   48        3.995590   1.000000
   49        4.060893   1.000000
   50        4.093827   1.000000
   51        4.187524   1.000000
   52        4.226380   1.000000
   53        4.276245   1.000000
   54        4.347388   1.000000
   55        4.380588   1.000000
   56        4.499185   1.000000
   57        4.567640   1.000000
   58        4.596881   1.000000
   59        4.680866   1.000000
   60        4.711330   1.000000
   61        4.758688   1.000000
   62        4.792964   1.000000
   63        4.835548   1.000000
   64        4.872832   1.000000
   65        4.926651   1.000000
   66        4.992301   1.000000
   67        5.022267   1.000000
   68        5.076125   1.000000
   69        5.127567   1.000000
   70        5.169230   1.000000
   71        5.213788   1.000000
   72        5.285165   1.000000
   73        5.321089   1.000000
   74        5.386763   1.000000
   75        5.477178   1.000000
   76        5.516528   1.000000
   77        5.554232   1.000000
   78        5.602017   1.000000
   79        5.638634   1.000000
   80        5.700402   1.000000
   81        5.775766   1.000000
   82        5.779834   1.000000
   83        5.865832   1.000000
   84        5.896914   1.000000
   85        5.916187   1.000000
   86        5.995972   1.000002
   87        6.075515   1.000031
   88        6.107367   1.000078
   89        6.150208   1.000250
   90        6.183912   1.000581
   91        6.222917   1.001421
   92        6.254693   1.002757
   93        6.321491   1.009057
   94        6.386848   1.021503
   95        6.414955   1.027944
   96        6.446323   1.033810
   97        6.481613   1.034756
   98        6.521529   1.020535
   99        6.588284   0.931669
  100        6.641076   0.785787
  101        6.683016   0.627912
  102        6.727897   0.439842
  103        6.817398   0.119756
  104        6.885806  -0.004014
  105        6.935240  -0.033010
  106        6.971271  -0.034890
  107        7.017857  -0.026702
  108        7.125912  -0.006524
  109        7.180021  -0.002374
  110        7.296852  -0.000148
  111        7.525868  -0.000000
  112        7.598276  -0.000000
  113        7.706379  -0.000000
  114        7.754336  -0.000000
  115        7.850800  -0.000000
  116        7.947342  -0.000000
  117        8.041315  -0.000000
  118        8.201633  -0.000000
  119        8.257185  -0.000000
  120        8.354699  -0.000000
 
  0.0000000E+00  0.2000000E+00  0.1387779E-16  0.1600000E-01
    1      -47.354376   1.000000
    2      -47.331524   1.000000
    3      -47.240623   1.000000
    4      -47.221805   1.000000
    5      -47.090507   1.000000
    6      -47.066034   1.000000
    7      -24.043689   1.000000
    8      -23.906917   1.000000
    9      -23.714921   1.000000
   10      -23.677684   1.000000
   11      -23.519329   1.000000
   12      -23.501681   1.000000
   13      -23.497047   1.000000
   14      -23.419294   1.000000
   15      -23.411696   1.000000
   16      -23.393030   1.000000
   17      -23.320562   1.000000
   18      -23.277018   1.000000
   19      -23.257754   1.000000
   20      -23.240715   1.000000
   21      -23.178681   1.000000
   22      -23.041656   1.000000
   23      -22.948134   1.000000
   24      -22.744694   1.000000
   25       -0.501774   1.000000
   26        0.786827   1.000000
   27        1.169811   1.000000
   28        1.615480   1.000000
   29        1.955377   1.000000
   30        2.134216   1.000000
   31        2.227884   1.000000
   32        2.432532   1.000000
   33        2.460526   1.000000
   34        2.597751   1.000000
   35        2.664914   1.000000
   36        2.714755   1.000000
   37        2.778130   1.000000
   38        2.859245   1.000000
   39        2.890886   1.000000
   40        2.928234   1.000000
   41        3.028615   1.000000
   42        3.107858   1.000000
   43        3.173333   1.000000
   44        3.315144   1.000000
   45        3.376765   1.000000
   46        3.504054   1.000000
   47        3.567171   1.000000
   48        3.662316   1.000000
   49        3.717263   1.000000
   50        3.769699   1.000000
   51        3.823722   1.000000
   52        3.875596   1.000000
   53        3.972205   1.000000
   54        4.065080   1.000000
   55        4.110449   1.000000
   56        4.163166   1.000000
   57        4.297467   1.000000
   58        4.426145   1.000000
   59        4.519600   1.000000
   60        4.573120   1.000000
   61        4.668189   1.000000
   62        4.728090   1.000000
   63        4.783319   1.000000
   64        4.833191   1.000000
   65        4.893464   1.000000
   66        4.908361   1.000000
   67        4.952190   1.000000
   68        4.993843   1.000000
   69        5.013592   1.000000
   70        5.071172   1.000000
   71        5.112524   1.000000
   72        5.205110   1.000000
   73        5.253314   1.000000
   74        5.298080   1.000000
   75        5.352817   1.000000
   76        5.420384   1.000000
   77        5.561920   1.000000
   78        5.623255   1.000000
   79        5.660951   1.000000
   80        5.785307   1.000000
   81        5.831647   1.000000
   82        5.860666   1.000000
   83        5.913637   1.000000
   84        5.969129   1.000001
   85        5.975391   1.000001
   86        6.049328   1.000014
   87        6.120402   1.000113
   88        6.156769   1.000296
   89        6.191400   1.000695
   90        6.264150   1.003319
   91        6.313753   1.008009
   92        6.347850   1.013344
   93        6.416418   1.028266
   94        6.506292   1.028532
   95        6.561773   0.978899
   96        6.647789   0.762599
   97        6.731235   0.425866
   98        6.821491   0.109108
   99        6.903589  -0.019095
  100        7.083669  -0.012580
  101        7.200973  -0.001529
  102        7.265111  -0.000340
  103        7.321028  -0.000076
  104        7.484656  -0.000000
  105        7.589043  -0.000000
  106        7.675725  -0.000000
  107        7.795604  -0.000000
  108        7.889478  -0.000000
  109        7.959988  -0.000000
  110        8.054335  -0.000000
  111        8.131164  -0.000000
  112        8.259898  -0.000000
  113        8.310001  -0.000000
  114        8.596406  -0.000000
  115        8.663409  -0.000000
  116        8.748055  -0.000000
  117        8.842685  -0.000000
  118        8.871112  -0.000000
  119        8.967936  -0.000000
  120        8.986081  -0.000000
 
  0.2000000E+00  0.2000000E+00 -0.4857226E-16  0.1600000E-01
    1      -47.351292   1.000000
    2      -47.326330   1.000000
    3      -47.240277   1.000000
    4      -47.221077   1.000000
    5      -47.090060   1.000000
    6      -47.074771   1.000000
    7      -23.948506   1.000000
    8      -23.896558   1.000000
    9      -23.715506   1.000000
   10      -23.678045   1.000000
   11      -23.522569   1.000000
   12      -23.503578   1.000000
   13      -23.493506   1.000000
   14      -23.424782   1.000000
   15      -23.417064   1.000000
   16      -23.394650   1.000000
   17      -23.321994   1.000000
   18      -23.279942   1.000000
   19      -23.262260   1.000000
   20      -23.247753   1.000000
   21      -23.182520   1.000000
   22      -23.036729   1.000000
   23      -22.948327   1.000000
   24      -22.868757   1.000000
   25       -0.319447   1.000000
   26        0.957477   1.000000
   27        1.392410   1.000000
   28        1.944568   1.000000
   29        2.193608   1.000000
   30        2.275195   1.000000
   31        2.341188   1.000000
   32        2.433608   1.000000
   33        2.577742   1.000000
   34        2.759224   1.000000
   35        2.813661   1.000000
   36        2.877255   1.000000
   37        2.909073   1.000000
   38        3.025631   1.000000
   39        3.087344   1.000000
   40        3.151275   1.000000
   41        3.196220   1.000000
   42        3.293506   1.000000
   43        3.322383   1.000000
   44        3.396899   1.000000
   45        3.517380   1.000000
   46        3.573938   1.000000
   47        3.664366   1.000000
   48        3.770293   1.000000
   49        3.806552   1.000000
   50        3.846252   1.000000
   51        3.932661   1.000000
   52        3.971088   1.000000
   53        4.089688   1.000000
   54        4.142551   1.000000
   55        4.237753   1.000000
   56        4.291119   1.000000
   57        4.383847   1.000000
   58        4.492483   1.000000
   59        4.539915   1.000000
   60        4.592695   1.000000
   61        4.627732   1.000000
   62        4.706900   1.000000
   63        4.802065   1.000000
   64        4.833755   1.000000
   65        4.877671   1.000000
   66        4.927426   1.000000
   67        4.973784   1.000000
   68        5.013815   1.000000
   69        5.033415   1.000000
   70        5.085231   1.000000
   71        5.180736   1.000000
   72        5.212887   1.000000
   73        5.278751   1.000000
   74        5.292118   1.000000
   75        5.357537   1.000000
   76        5.394564   1.000000
   77        5.442434   1.000000
   78        5.548479   1.000000
   79        5.631804   1.000000
   80        5.682475   1.000000
   81        5.730161   1.000000
   82        5.773199   1.000000
   83        5.824311   1.000000
   84        5.917571   1.000000
   85        5.998902   1.000003
   86        6.068533   1.000025
   87        6.118588   1.000107
   88        6.164575   1.000361
   89        6.205822   1.000971
   90        6.243582   1.002202
   91        6.348545   1.013472
   92        6.388884   1.021970
   93        6.468574   1.035458
   94        6.493122   1.032759
   95        6.604007   0.895395
   96        6.650490   0.753014
   97        6.752046   0.340765
   98        6.796046   0.181965
   99        6.874988   0.008247
  100        6.928594  -0.031248
  101        6.956135  -0.035434
  102        7.019327  -0.026368
  103        7.072208  -0.014708
  104        7.181258  -0.002315
  105        7.277353  -0.000248
  106        7.356870  -0.000027
  107        7.420216  -0.000003
  108        7.499744  -0.000000
  109        7.723141  -0.000000
  110        7.841966  -0.000000
  111        7.894659  -0.000000
  112        8.091311  -0.000000
  113        8.396054  -0.000000
  114        8.450283  -0.000000
  115        8.610558  -0.000000
  116        8.694274  -0.000000
  117        8.824960  -0.000000
  118        8.904929  -0.000000
  119        9.003396  -0.000000
  120        9.075828  -0.000000
 
  0.4000000E+00  0.2000000E+00 -0.5551115E-16  0.1600000E-01
    1      -47.347779   1.000000
    2      -47.315288   1.000000
    3      -47.239103   1.000000
    4      -47.219634   1.000000
    5      -47.090597   1.000000
    6      -47.089659   1.000000
    7      -23.918470   1.000000
    8      -23.730490   1.000000
    9      -23.686903   1.000000
   10      -23.614123   1.000000
   11      -23.529419   1.000000
   12      -23.511569   1.000000
   13      -23.479704   1.000000
   14      -23.434392   1.000000
   15      -23.425870   1.000000
   16      -23.395998   1.000000
   17      -23.324253   1.000000
   18      -23.284046   1.000000
   19      -23.275146   1.000000
   20      -23.259975   1.000000
   21      -23.218428   1.000000
   22      -23.146733   1.000000
   23      -23.042648   1.000000
   24      -22.947184   1.000000
   25        0.409955   1.000000
   26        1.408054   1.000000
   27        1.825510   1.000000
   28        2.013369   1.000000
   29        2.161572   1.000000
   30        2.369900   1.000000
   31        2.678815   1.000000
   32        2.874846   1.000000
   33        2.921153   1.000000
   34        3.111287   1.000000
   35        3.182841   1.000000
   36        3.197512   1.000000
   37        3.296365   1.000000
   38        3.345194   1.000000
   39        3.417161   1.000000
   40        3.461033   1.000000
   41        3.521745   1.000000
   42        3.590599   1.000000
   43        3.633462   1.000000
   44        3.711863   1.000000
   45        3.738804   1.000000
   46        3.784495   1.000000
   47        3.850970   1.000000
   48        3.930414   1.000000
   49        3.994767   1.000000
   50        4.071581   1.000000
   51        4.110238   1.000000
   52        4.161347   1.000000
   53        4.203909   1.000000
   54        4.279641   1.000000
   55        4.320621   1.000000
   56        4.355924   1.000000
   57        4.512967   1.000000
   58        4.547868   1.000000
   59        4.632889   1.000000
   60        4.679642   1.000000
   61        4.770039   1.000000
   62        4.817518   1.000000
   63        4.858675   1.000000
   64        4.897303   1.000000
   65        4.905803   1.000000
   66        4.974403   1.000000
   67        5.066276   1.000000
   68        5.088587   1.000000
   69        5.147876   1.000000
   70        5.184132   1.000000
   71        5.241554   1.000000
   72        5.288383   1.000000
   73        5.345247   1.000000
   74        5.406177   1.000000
   75        5.461281   1.000000
   76        5.509257   1.000000
   77        5.554658   1.000000
   78        5.609236   1.000000
   79        5.652540   1.000000
   80        5.705862   1.000000
   81        5.747951   1.000000
   82        5.779164   1.000000
   83        5.849938   1.000000
   84        5.888091   1.000000
   85        5.951226   1.000000
   86        5.989438   1.000002
   87        6.010231   1.000004
   88        6.067670   1.000024
   89        6.109604   1.000083
   90        6.142378   1.000204
   91        6.223608   1.001443
   92        6.269723   1.003693
   93        6.287831   1.005154
   94        6.329890   1.010302
   95        6.350301   1.013798
   96        6.372100   1.018213
   97        6.428650   1.030825
   98        6.513933   1.024974
   99        6.577550   0.952863
  100        6.598778   0.908152
  101        6.660574   0.716017
  102        6.735942   0.406279
  103        6.806468   0.150229
  104        6.866673   0.019409
  105        6.929581  -0.031544
  106        7.004734  -0.029583
  107        7.116882  -0.007584
  108        7.289147  -0.000182
  109        7.383862  -0.000011
  110        7.507785  -0.000000
  111        7.688647  -0.000000
  112        7.858449  -0.000000
  113        7.970356  -0.000000
  114        8.034113  -0.000000
  115        8.095348  -0.000000
  116        8.259768  -0.000000
  117        8.351336  -0.000000
  118        8.407103  -0.000000
  119        8.484933  -0.000000
  120        8.534203  -0.000000
 
 -0.4000000E+00  0.2000000E+00 -0.3908332E-16  0.1600000E-01
    1      -47.347741   1.000000
    2      -47.315267   1.000000
    3      -47.238769   1.000000
    4      -47.219620   1.000000
    5      -47.090760   1.000000
    6      -47.089885   1.000000
    7      -23.917301   1.000000
    8      -23.727547   1.000000
    9      -23.681818   1.000000
   10      -23.614206   1.000000
   11      -23.529024   1.000000
   12      -23.511596   1.000000
   13      -23.479955   1.000000
   14      -23.434565   1.000000
   15      -23.426005   1.000000
   16      -23.396171   1.000000
   17      -23.324096   1.000000
   18      -23.283918   1.000000
   19      -23.275166   1.000000
   20      -23.260121   1.000000
   21      -23.218466   1.000000
   22      -23.146821   1.000000
   23      -23.052506   1.000000
   24      -22.948618   1.000000
   25        0.767192   1.000000
   26        1.372020   1.000000
   27        1.672467   1.000000
   28        2.130413   1.000000
   29        2.244574   1.000000
   30        2.422666   1.000000
   31        2.615014   1.000000
   32        2.803180   1.000000
   33        2.959858   1.000000
   34        3.004146   1.000000
   35        3.056714   1.000000
   36        3.140782   1.000000
   37        3.222884   1.000000
   38        3.304385   1.000000
   39        3.366253   1.000000
   40        3.415140   1.000000
   41        3.525790   1.000000
   42        3.583160   1.000000
   43        3.606302   1.000000
   44        3.694327   1.000000
   45        3.781724   1.000000
   46        3.827483   1.000000
   47        3.895300   1.000000
   48        4.034413   1.000000
   49        4.066484   1.000000
   50        4.112886   1.000000
   51        4.194399   1.000000
   52        4.250926   1.000000
   53        4.360828   1.000000
   54        4.386094   1.000000
   55        4.438776   1.000000
   56        4.511451   1.000000
   57        4.558373   1.000000
   58        4.636681   1.000000
   59        4.703817   1.000000
   60        4.737414   1.000000
   61        4.769233   1.000000
   62        4.808571   1.000000
   63        4.862898   1.000000
   64        4.891088   1.000000
   65        4.936812   1.000000
   66        4.967224   1.000000
   67        5.017842   1.000000
   68        5.044272   1.000000
   69        5.092212   1.000000
   70        5.164028   1.000000
   71        5.195681   1.000000
   72        5.246566   1.000000
   73        5.287445   1.000000
   74        5.310254   1.000000
   75        5.429654   1.000000
   76        5.480010   1.000000
   77        5.547963   1.000000
   78        5.584741   1.000000
   79        5.649381   1.000000
   80        5.686574   1.000000
   81        5.747486   1.000000
   82        5.796192   1.000000
   83        5.836620   1.000000
   84        5.887882   1.000000
   85        5.944357   1.000000
   86        6.012671   1.000004
   87        6.050535   1.000014
   88        6.068176   1.000025
   89        6.097415   1.000059
   90        6.147909   1.000236
   91        6.233454   1.001782
   92        6.250547   1.002537
   93        6.314379   1.008091
   94        6.356101   1.014909
   95        6.401164   1.024807
   96        6.466072   1.035432
   97        6.514312   1.024775
   98        6.581291   0.945801
   99        6.604507   0.894140
  100        6.665663   0.696673
  101        6.716559   0.487648
  102        6.756368   0.323696
  103        6.794962   0.185412
  104        6.854445   0.038728
  105        6.969428  -0.035038
  106        7.039907  -0.021623
  107        7.078792  -0.013461
  108        7.127751  -0.006323
  109        7.228901  -0.000818
  110        7.311609  -0.000099
  111        7.435948  -0.000002
  112        7.560809  -0.000000
  113        7.662327  -0.000000
  114        7.838909  -0.000000
  115        7.948033  -0.000000
  116        8.083985  -0.000000
  117        8.170064  -0.000000
  118        8.265580  -0.000000
  119        8.356885  -0.000000
  120        8.418484  -0.000000
 
 -0.2000000E+00  0.2000000E+00  0.1006140E-15  0.1600000E-01
    1      -47.351241   1.000000
    2      -47.326287   1.000000
    3      -47.239744   1.000000
    4      -47.221048   1.000000
    5      -47.090696   1.000000
    6      -47.074763   1.000000
    7      -23.948114   1.000000
    8      -23.894879   1.000000
    9      -23.707204   1.000000
   10      -23.673584   1.000000
   11      -23.522121   1.000000
   12      -23.503627   1.000000
   13      -23.493883   1.000000
   14      -23.425061   1.000000
   15      -23.417331   1.000000
   16      -23.394882   1.000000
   17      -23.321708   1.000000
   18      -23.279747   1.000000
   19      -23.262264   1.000000
   20      -23.248078   1.000000
   21      -23.182611   1.000000
   22      -23.052294   1.000000
   23      -22.950934   1.000000
   24      -22.868795   1.000000
   25       -0.065968   1.000000
   26        1.033987   1.000000
   27        1.378830   1.000000
   28        1.810094   1.000000
   29        2.055579   1.000000
   30        2.418434   1.000000
   31        2.432575   1.000000
   32        2.632094   1.000000
   33        2.692785   1.000000
   34        2.760343   1.000000
   35        2.821059   1.000000
   36        2.857301   1.000000
   37        2.937919   1.000000
   38        3.000487   1.000000
   39        3.039427   1.000000
   40        3.121273   1.000000
   41        3.156390   1.000000
   42        3.243117   1.000000
   43        3.290274   1.000000
   44        3.386274   1.000000
   45        3.487193   1.000000
   46        3.583578   1.000000
   47        3.644051   1.000000