 running on   32 total cores
 distrk:  each k-point on   32 cores,    1 groups
 distr:  one band on    4 cores,    8 groups
 using from now: INCAR     
 vasp.5.4.4.18Apr17-6-g9f103f2a35 (build Aug 09 2018 16:20:53) complex          
  
 POSCAR found :  5 types and      29 ions
 scaLAPACK will be used

 ----------------------------------------------------------------------------- 
|                                                                             |
|  ADVICE TO THIS USER RUNNING 'VASP/VAMP'   (HEAR YOUR MASTER'S VOICE ...):  |
|                                                                             |
|      You enforced a specific xc-type in the INCAR file,                     |
|      a different type was found on the POTCAR file                          |
|          I HOPE YOU KNOW, WHAT YOU ARE  DOING                               |
|                                                                             |
 ----------------------------------------------------------------------------- 

 LDA part: xc-table for Pade appr. of Perdew
 POSCAR found :  5 types and      29 ions
 POSCAR, INCAR and KPOINTS ok, starting setup
 FFT: planning ...
 WAVECAR not read
 entering main loop
       N       E                     dE             d eps       ncg     rms          rms(c)
DAV:   1     0.215530005565E+04    0.21553E+04   -0.91340E+04 15120   0.175E+03
DAV:   2     0.732092118646E+02   -0.20821E+04   -0.20192E+04 15168   0.520E+02
DAV:   3    -0.301449429765E+03   -0.37466E+03   -0.35625E+03 26384   0.183E+02
DAV:   4    -0.348200768085E+03   -0.46751E+02   -0.43182E+02 23392   0.601E+01
DAV:   5    -0.353240847116E+03   -0.50401E+01   -0.49162E+01 28760   0.221E+01    0.754E+01
DAV:   6    -0.344976856489E+03    0.82640E+01   -0.13448E+02 20992   0.317E+01    0.377E+01
DAV:   7    -0.355470237461E+03   -0.10493E+02   -0.39552E+02 21904   0.765E+01    0.279E+01
DAV:   8    -0.342953530607E+03    0.12517E+02   -0.63899E+01 23448   0.268E+01    0.192E+01
DAV:   9    -0.334226538412E+03    0.87270E+01   -0.21509E+01 20896   0.147E+01    0.124E+01
DAV:  10    -0.331516248178E+03    0.27103E+01   -0.12993E+01 21880   0.978E+00    0.730E+00
DAV:  11    -0.330823180977E+03    0.69307E+00   -0.40695E+00 22496   0.561E+00    0.400E+00
DAV:  12    -0.330786504783E+03    0.36676E-01   -0.18102E+00 23648   0.378E+00    0.290E+00
DAV:  13    -0.330737822718E+03    0.48682E-01   -0.10458E+00 22472   0.301E+00    0.193E+00
DAV:  14    -0.330681179616E+03    0.56643E-01   -0.38321E-01 22288   0.224E+00    0.918E-01
DAV:  15    -0.330680261105E+03    0.91851E-03   -0.11647E-01 23152   0.115E+00    0.680E-01
DAV:  16    -0.330680804968E+03   -0.54386E-03   -0.81399E-02 22592   0.847E-01    0.694E-01
DAV:  17    -0.330676337110E+03    0.44679E-02   -0.36849E-02 22672   0.554E-01    0.435E-01
DAV:  18    -0.330674159121E+03    0.21780E-02   -0.28631E-02 21376   0.467E-01    0.179E-01
DAV:  19    -0.330673880966E+03    0.27815E-03   -0.41898E-03 21248   0.202E-01    0.947E-02
DAV:  20    -0.330673798871E+03    0.82095E-04   -0.12205E-03 18624   0.120E-01    0.653E-02
DAV:  21    -0.330673763299E+03    0.35572E-04   -0.67570E-04 15904   0.853E-02
   1 F= -.33067376E+03 E0= -.33066879E+03  d E =-.330674E+03
 curvature:   0.00 expect dE= 0.000E+00 dE for cont linesearch  0.000E+00
 trial: gam= 0.00000 g(F)=  0.576E+00 g(S)=  0.206E+00 ort = 0.000E+00 (trialstep = 0.100E+01)
 search vector abs. value=  0.783E+00
 bond charge predicted
       N       E                     dE             d eps       ncg     rms          rms(c)
DAV:   1    -0.331517531310E+03   -0.84373E+00   -0.97051E+01 15304   0.385E+01    0.928E+00
DAV:   2    -0.331704933499E+03   -0.18740E+00   -0.12650E+01 22480   0.151E+01    0.625E+00
DAV:   3    -0.331424179562E+03    0.28075E+00   -0.78065E+00 22608   0.860E+00    0.524E+00
DAV:   4    -0.331200566252E+03    0.22361E+00   -0.41477E+00 23552   0.673E+00    0.344E+00
DAV:   5    -0.331032762570E+03    0.16780E+00   -0.18816E+00 22312   0.460E+00    0.187E+00
DAV:   6    -0.330973590556E+03    0.59172E-01   -0.51761E-01 24200   0.222E+00    0.106E+00
DAV:   7    -0.330976144094E+03   -0.25535E-02   -0.17368E-01 24560   0.125E+00    0.877E-01
DAV:   8    -0.330974067156E+03    0.20769E-02   -0.66704E-02 23096   0.814E-01    0.649E-01
DAV:   9    -0.330974391853E+03   -0.32470E-03   -0.28106E-02 22536   0.495E-01    0.439E-01
DAV:  10    -0.330976855844E+03   -0.24640E-02   -0.15373E-02 23416   0.377E-01    0.309E-01
DAV:  11    -0.330977896614E+03   -0.10408E-02   -0.13333E-02 23096   0.340E-01    0.223E-01
DAV:  12    -0.330977645562E+03    0.25105E-03   -0.66424E-03 21864   0.225E-01    0.999E-02
DAV:  13    -0.330977708369E+03   -0.62807E-04   -0.13944E-03 20912   0.113E-01    0.532E-02
DAV:  14    -0.330977713985E+03   -0.56157E-05   -0.37658E-04 13320   0.756E-02
   2 F= -.33097771E+03 E0= -.33097475E+03  d E =-.303951E+00
 trial-energy change:   -0.303951  1 .order   -0.293679   -0.782792    0.195434
 step:   0.8099(harm=  0.8002)  dis= 0.03561  next Energy=  -330.996218 (dE=-0.322E+00)
 bond charge predicted
       N       E                     dE             d eps       ncg     rms          rms(c)
DAV:   1    -0.331014505979E+03   -0.36798E-01   -0.35349E+00 15384   0.736E+00    0.182E+00
DAV:   2    -0.331019689387E+03   -0.51834E-02   -0.42266E-01 23176   0.274E+00    0.125E+00
DAV:   3    -0.331018281692E+03    0.14077E-02   -0.33833E-01 22840   0.186E+00    0.108E+00
DAV:   4    -0.331004586058E+03    0.13696E-01   -0.14396E-01 23416   0.124E+00    0.623E-01
DAV:   5    -0.330997749686E+03    0.68364E-02   -0.61884E-02 22296   0.836E-01    0.332E-01
DAV:   6    -0.330996383695E+03    0.13660E-02   -0.20342E-02 24248   0.444E-01    0.213E-01
DAV:   7    -0.330996246193E+03    0.13750E-03   -0.68997E-03 21824   0.250E-01    0.162E-01
DAV:   8    -0.330996137413E+03    0.10878E-03   -0.23961E-03 20640   0.155E-01    0.117E-01
DAV:   9    -0.330996143638E+03   -0.62250E-05   -0.99873E-04 17912   0.944E-02
   3 F= -.33099614E+03 E0= -.33099280E+03  d E =-.322380E+00
 curvature:  -0.40 expect dE=-0.296E+00 dE for cont linesearch -0.113E-05
 trial: gam= 0.95049 g(F)=  0.200E+00 g(S)=  0.542E+00 ort =-0.149E-02 (trialstep = 0.520E+00)
 search vector abs. value=  0.145E+01
 bond charge predicted
       N       E                     dE             d eps       ncg     rms          rms(c)
DAV:   1    -0.331192711459E+03   -0.19657E+00   -0.45512E+01 15120   0.224E+01    0.358E+00
DAV:   2    -0.331328754962E+03   -0.13604E+00   -0.33343E+00 21752   0.701E+00    0.255E+00
DAV:   3    -0.331339037955E+03   -0.10283E-01   -0.16814E+00 22736   0.414E+00    0.227E+00
DAV:   4    -0.331260436494E+03    0.78601E-01   -0.49395E-01 22872   0.233E+00    0.117E+00
DAV:   5    -0.331245056810E+03    0.15380E-01   -0.20227E-01 22648   0.148E+00    0.759E-01
DAV:   6    -0.331239287623E+03    0.57692E-02   -0.10053E-01 22832   0.104E+00    0.479E-01
DAV:   7    -0.331237891906E+03    0.13957E-02   -0.35727E-02 23840   0.658E-01    0.388E-01
DAV:   8    -0.331236884937E+03    0.10070E-02   -0.17306E-02 23808   0.380E-01    0.280E-01
DAV:   9    -0.331236844718E+03    0.40220E-04   -0.51619E-03 20680   0.200E-01    0.214E-01
DAV:  10    -0.331237005896E+03   -0.16118E-03   -0.25283E-03 19712   0.153E-01    0.155E-01
DAV:  11    -0.331237215491E+03   -0.20960E-03   -0.23020E-03 20968   0.168E-01    0.970E-02
DAV:  12    -0.331237131162E+03    0.84329E-04   -0.13204E-03 20552   0.122E-01    0.397E-02
DAV:  13    -0.331237100946E+03    0.30216E-04   -0.22100E-04 10272   0.648E-02
   4 F= -.33123710E+03 E0= -.33123535E+03  d E =-.240957E+00
 trial-energy change:   -0.240957  1 .order   -0.243387   -0.385716   -0.101058
 step:   0.7193(harm=  0.7052)  dis= 0.04460  next Energy=  -331.256271 (dE=-0.260E+00)
 bond charge predicted
       N       E                     dE             d eps       ncg     rms          rms(c)
DAV:   1    -0.331250139458E+03   -0.13008E-01   -0.66337E+00 15120   0.853E+00    0.132E+00
DAV:   2    -0.331268971796E+03   -0.18832E-01   -0.48052E-01 21304   0.267E+00    0.950E-01
DAV:   3    -0.331269241219E+03   -0.26942E-03   -0.22785E-01 22680   0.154E+00    0.836E-01
DAV:   4    -0.331259075821E+03    0.10165E-01   -0.71272E-02 22680   0.886E-01    0.440E-01
DAV:   5    -0.331257003022E+03    0.20728E-02   -0.29320E-02 22640   0.562E-01    0.287E-01
DAV:   6    -0.331256093393E+03    0.90963E-03   -0.13881E-02 23320   0.383E-01    0.177E-01
DAV:   7    -0.331255895130E+03    0.19826E-03   -0.47558E-03 22784   0.240E-01    0.141E-01
DAV:   8    -0.331255783741E+03    0.11139E-03   -0.22355E-03 20360   0.139E-01    0.104E-01
DAV:   9    -0.331255770395E+03    0.13346E-04   -0.70330E-04 16128   0.815E-02
   5 F= -.33125577E+03 E0= -.33125467E+03  d E =-.259627E+00
 curvature:  -0.68 expect dE=-0.439E-01 dE for cont linesearch -0.143E-05
 trial: gam= 0.01142 g(F)=  0.610E-01 g(S)=  0.305E-02 ort =-0.174E-02 (trialstep = 0.560E+00)
 search vector abs. value=  0.642E-01
 bond charge predicted
       N       E                     dE             d eps       ncg     rms          rms(c)
DAV:   1    -0.331277534874E+03   -0.21751E-01   -0.24830E+00 15688   0.535E+00    0.720E-01
DAV:   2    -0.331291292532E+03   -0.13758E-01   -0.18858E-01 22112   0.167E+00    0.723E-01
DAV:   3    -0.331286287891E+03    0.50046E-02   -0.80242E-02 23120   0.910E-01    0.451E-01
DAV:   4    -0.331284817862E+03    0.14700E-02   -0.22063E-02 21920   0.495E-01    0.305E-01
DAV:   5    -0.331283769108E+03    0.10488E-02   -0.13321E-02 22408   0.365E-01    0.163E-01
DAV:   6    -0.331283499657E+03    0.26945E-03   -0.40334E-03 23040   0.217E-01    0.109E-01
DAV:   7    -0.331283386002E+03    0.11365E-03   -0.18870E-03 20560   0.142E-01    0.779E-02
DAV:   8    -0.331283325945E+03    0.60057E-04   -0.51544E-04 14184   0.787E-02
   6 F= -.33128333E+03 E0= -.33128238E+03  d E =-.275556E-01
 trial-energy change:   -0.027556  1 .order   -0.027757   -0.035885   -0.019629
 step:   1.2367(harm=  1.2367)  dis= 0.01621  next Energy=  -331.295379 (dE=-0.396E-01)
 bond charge predicted
       N       E                     dE             d eps       ncg     rms          rms(c)
DAV:   1    -0.331287510021E+03   -0.41240E-02   -0.36268E+00 15744   0.647E+00    0.878E-01
DAV:   2    -0.331308025576E+03   -0.20516E-01   -0.27247E-01 22168   0.202E+00    0.897E-01
DAV:   3    -0.331300266482E+03    0.77591E-02   -0.11796E-01 23144   0.111E+00    0.553E-01
DAV:   4    -0.331298265156E+03    0.20013E-02   -0.32846E-02 22264   0.600E-01    0.380E-01
DAV:   5    -0.331296709027E+03    0.15561E-02   -0.20576E-02 22392   0.451E-01    0.211E-01
DAV:   6    -0.331296300249E+03    0.40878E-03   -0.68544E-03 23696   0.278E-01    0.145E-01
DAV:   7    -0.331296051289E+03    0.24896E-03   -0.31244E-03 20912   0.179E-01    0.931E-02
DAV:   8    -0.331295974898E+03    0.76391E-04   -0.89643E-04 17656   0.963E-02
   7 F= -.33129597E+03 E0= -.33129525E+03  d E =-.402045E-01
 curvature:  -0.62 expect dE=-0.367E-01 dE for cont linesearch -0.534E-04
 trial: gam= 0.88738 g(F)=  0.127E-01 g(S)=  0.466E-01 ort = 0.235E-02 (trialstep = 0.392E+00)
 search vector abs. value=  0.114E+00
 bond charge predicted
       N       E                     dE             d eps       ncg     rms          rms(c)
DAV:   1    -0.331321808894E+03   -0.25758E-01   -0.19717E+00 15176   0.565E+00    0.135E+00
DAV:   2    -0.331325108690E+03   -0.32998E-02   -0.25602E-01 22808   0.208E+00    0.866E-01
DAV:   3    -0.331324193175E+03    0.91551E-03   -0.17579E-01 22176   0.139E+00    0.804E-01
DAV:   4    -0.331315764168E+03    0.84290E-02   -0.79090E-02 22880   0.945E-01    0.466E-01
DAV:   5    -0.331312153039E+03    0.36111E-02   -0.37708E-02 22424   0.609E-01    0.244E-01
DAV:   6    -0.331311320495E+03    0.83254E-03   -0.98026E-03 23128   0.296E-01    0.129E-01
DAV:   7    -0.331311435595E+03   -0.11510E-03   -0.40670E-03 21088   0.192E-01    0.121E-01
DAV:   8    -0.331311322559E+03    0.11304E-03   -0.14367E-03 19392   0.115E-01    0.732E-02
DAV:   9    -0.331311322391E+03    0.16814E-06   -0.21650E-04 10640   0.625E-02
   8 F= -.33131132E+03 E0= -.33131080E+03  d E =-.153475E-01
 trial-energy change:   -0.015347  1 .order   -0.015764   -0.024039   -0.007490
 step:   0.6254(harm=  0.5690)  dis= 0.01041  next Energy=  -331.313467 (dE=-0.175E-01)
 bond charge predicted
       N       E                     dE             d eps       ncg     rms          rms(c)
DAV:   1    -0.331315748181E+03   -0.44256E-02   -0.70363E-01 15208   0.337E+00    0.799E-01
DAV:   2    -0.331316593597E+03   -0.84542E-03   -0.85714E-02 22136   0.123E+00    0.495E-01
DAV:   3    -0.331316708832E+03   -0.11524E-03   -0.60732E-02 22248   0.834E-01    0.469E-01
DAV:   4    -0.331313606255E+03    0.31026E-02   -0.27214E-02 22104   0.562E-01    0.261E-01
DAV:   5    -0.331312475469E+03    0.11308E-02   -0.12158E-02 22400   0.346E-01    0.140E-01
DAV:   6    -0.331312252145E+03    0.22332E-03   -0.30320E-03 20704   0.164E-01    0.819E-02
DAV:   7    -0.331312308406E+03   -0.56261E-04   -0.12435E-03 20040   0.108E-01    0.765E-02
DAV:   8    -0.331312277690E+03    0.30716E-04   -0.36352E-04 12432   0.693E-02
   9 F= -.33131228E+03 E0= -.33131187E+03  d E =-.163028E-01
 curvature:  -0.48 expect dE=-0.110E-01 dE for cont linesearch -0.244E-03
 trial: gam= 0.55173 g(F)=  0.144E-01 g(S)=  0.871E-02 ort =-0.765E-02 (trialstep = 0.438E+00)
 search vector abs. value=  0.494E-01
 bond charge predicted
       N       E                     dE             d eps       ncg     rms          rms(c)
DAV:   1    -0.331318155327E+03   -0.58469E-02   -0.74991E-01 16296   0.271E+00    0.211E-01
DAV:   2    -0.331321223791E+03   -0.30685E-02   -0.34239E-02 24784   0.813E-01    0.303E-01
DAV:   3    -0.331319900997E+03    0.13228E-02   -0.13083E-02 23272   0.370E-01    0.157E-01
DAV:   4    -0.331319699134E+03    0.20186E-03   -0.26295E-03 21408   0.157E-01    0.107E-01
DAV:   5    -0.331319588746E+03    0.11039E-03   -0.10129E-03 17744   0.103E-01    0.729E-02
DAV:   6    -0.331319572379E+03    0.16367E-04   -0.73281E-04 16464   0.954E-02
  10 F= -.33131957E+03 E0= -.33131934E+03  d E =-.729469E-02
 trial-energy change:   -0.007295  1 .order   -0.007226   -0.008291   -0.006160
 step:   1.7059(harm=  1.7059)  dis= 0.02551  next Energy=  -331.328407 (dE=-0.161E-01)
 bond charge predicted
       N       E                     dE             d eps       ncg     rms          rms(c)
DAV:   1    -0.331316318705E+03    0.32700E-02   -0.62616E+00 16320   0.784E+00    0.614E-01
DAV:   2    -0.331341972383E+03   -0.25654E-01   -0.28702E-01 24808   0.235E+00    0.863E-01
DAV:   3    -0.331331362649E+03    0.10610E-01   -0.11108E-01 23608   0.106E+00    0.441E-01
DAV:   4    -0.331329566525E+03    0.17961E-02   -0.21346E-02 23840   0.453E-01    0.290E-01
DAV:   5    -0.331328585509E+03    0.98102E-03   -0.76057E-03 21240   0.276E-01    0.194E-01
DAV:   6    -0.331328421602E+03    0.16391E-03   -0.58127E-03 21056   0.240E-01    0.157E-01
DAV:   7    -0.331328132190E+03    0.28941E-03   -0.42514E-03 21168   0.200E-01    0.103E-01
DAV:   8    -0.331327960967E+03    0.17122E-03   -0.13597E-03 18256   0.119E-01    0.476E-02
DAV:   9    -0.331327916301E+03    0.44666E-04   -0.23755E-04 11472   0.637E-02
  11 F= -.33132792E+03 E0= -.33132826E+03  d E =-.156386E-01
 curvature:  -2.23 expect dE=-0.395E-01 dE for cont linesearch -0.166E-04
 trial: gam= 0.13261 g(F)=  0.106E-01 g(S)=  0.710E-02 ort =-0.606E-03 (trialstep = 0.692E+00)
 search vector abs. value=  0.185E-01
 bond charge predicted
       N       E                     dE             d eps       ncg     rms          rms(c)
DAV:   1    -0.331343414475E+03   -0.15454E-01   -0.12456E+00 17688   0.464E+00    0.120E+00
DAV:   2    -0.331343670194E+03   -0.25572E-03   -0.18490E-01 24464   0.180E+00    0.776E-01
DAV:   3    -0.331342456172E+03    0.12140E-02   -0.15115E-01 22880   0.121E+00    0.668E-01
DAV:   4    -0.331335954683E+03    0.65015E-02   -0.50471E-02 23744   0.771E-01    0.355E-01
DAV:   5    -0.331334327921E+03    0.16268E-02   -0.26320E-02 22424   0.526E-01    0.250E-01
DAV:   6    -0.331333359477E+03    0.96844E-03   -0.89875E-03 22840   0.284E-01    0.123E-01
DAV:   7    -0.331333465903E+03   -0.10643E-03   -0.22657E-03 20992   0.147E-01    0.104E-01
DAV:   8    -0.331333422323E+03    0.43580E-04   -0.95724E-04 17760   0.921E-02
  12 F= -.33133342E+03 E0= -.33133379E+03  d E =-.550602E-02
 trial-energy change:   -0.005506  1 .order   -0.005935   -0.012222    0.000351
 step:   0.6679(harm=  0.6726)  dis= 0.00463  next Energy=  -331.333428 (dE=-0.551E-02)
 bond charge predicted
       N       E                     dE             d eps       ncg     rms          rms(c)
DAV:   1    -0.331333475589E+03   -0.96862E-05   -0.16977E-03 18224   0.171E-01    0.773E-02
DAV:   2    -0.331333562941E+03   -0.87352E-04   -0.94925E-04 19328   0.106E-01
  13 F= -.33133356E+03 E0= -.33133395E+03  d E =-.564664E-02
 curvature:  -0.33 expect dE=-0.384E-02 dE for cont linesearch -0.467E-06
 trial: gam= 0.64439 g(F)=  0.470E-02 g(S)=  0.694E-02 ort = 0.162E-03 (trialstep = 0.650E+00)
 search vector abs. value=  0.195E-01
 bond charge predicted
       N       E                     dE             d eps       ncg     rms          rms(c)
DAV:   1    -0.331336214442E+03   -0.27389E-02   -0.11160E+00 15896   0.359E+00    0.459E-01
DAV:   2    -0.331342272970E+03   -0.60585E-02   -0.84965E-02 22624   0.115E+00    0.499E-01
DAV:   3    -0.331339575905E+03    0.26971E-02   -0.33317E-02 22816   0.574E-01    0.297E-01
DAV:   4    -0.331338964496E+03    0.61141E-03   -0.79315E-03 21048   0.303E-01    0.204E-01
DAV:   5    -0.331338626973E+03    0.33752E-03   -0.53732E-03 21984   0.238E-01    0.118E-01
DAV:   6    -0.331338462517E+03    0.16446E-03   -0.26066E-03 20400   0.161E-01    0.716E-02
DAV:   7    -0.331338386218E+03    0.76299E-04   -0.69249E-04 16280   0.949E-02
  14 F= -.33133839E+03 E0= -.33133868E+03  d E =-.482328E-02
 trial-energy change:   -0.004823  1 .order   -0.004885   -0.007632   -0.002139
 step:   0.9028(harm=  0.9028)  dis= 0.00783  next Energy=  -331.338865 (dE=-0.530E-02)
 bond charge predicted
       N       E                     dE             d eps       ncg     rms          rms(c)
DAV:   1    -0.331338400710E+03    0.61808E-04   -0.16967E-01 15704   0.140E+00    0.175E-01
DAV:   2    -0.331339470181E+03   -0.10695E-02   -0.13277E-02 22208   0.462E-01    0.203E-01
DAV:   3    -0.331338966589E+03    0.50359E-03   -0.52292E-03 19544   0.235E-01    0.106E-01
DAV:   4    -0.331338903131E+03    0.63459E-04   -0.11154E-03 18160   0.119E-01    0.755E-02
DAV:   5    -0.331338861089E+03    0.42041E-04   -0.68634E-04 16008   0.938E-02
  15 F= -.33133886E+03 E0= -.33133912E+03  d E =-.529815E-02
 curvature:  -0.75 expect dE=-0.162E-02 dE for cont linesearch -0.169E-04
 trial: gam= 0.07681 g(F)=  0.204E-02 g(S)=  0.124E-03 ort = 0.663E-03 (trialstep = 0.700E+00)
 search vector abs. value=  0.238E-02
 bond charge predicted
       N       E                     dE             d eps       ncg     rms          rms(c)
DAV:   1    -0.331339810643E+03   -0.90751E-03   -0.12771E-01 15120   0.120E+00    0.175E-01
DAV:   2    -0.331340223121E+03   -0.41248E-03   -0.92043E-03 21112   0.374E-01    0.120E-01
DAV:   3    -0.331340193138E+03    0.29982E-04   -0.33633E-03 20496   0.192E-01    0.962E-02
DAV:   4    -0.331340036468E+03    0.15667E-03   -0.11455E-03 18136   0.112E-01    0.440E-02
DAV:   5    -0.331340031590E+03    0.48775E-05   -0.34653E-04 12752   0.694E-02
  16 F= -.33134003E+03 E0= -.33134024E+03  d E =-.117050E-02
 trial-energy change:   -0.001171  1 .order   -0.001257   -0.001550   -0.000964
 step:   1.8532(harm=  1.8532)  dis= 0.00470  next Energy=  -331.340912 (dE=-0.205E-02)
 bond charge predicted
       N       E                     dE             d eps       ncg     rms          rms(c)
DAV:   1    -0.331340180724E+03   -0.14426E-03   -0.34546E-01 15120   0.199E+00    0.285E-01
DAV:   2    -0.331341450723E+03   -0.12700E-02   -0.25840E-02 21400   0.617E-01    0.210E-01
DAV:   3    -0.331341373394E+03    0.77329E-04   -0.10354E-02 22048   0.335E-01    0.185E-01
DAV:   4    -0.331340934278E+03    0.43912E-03   -0.37775E-03 20520   0.204E-01    0.104E-01
DAV:   5    -0.331340802797E+03    0.13148E-03   -0.18152E-03 19400   0.133E-01    0.607E-02
DAV:   6    -0.331340745860E+03    0.56937E-04   -0.42754E-04 12920   0.798E-02
  17 F= -.33134075E+03 E0= -.33134087E+03  d E =-.188477E-02
 curvature:  -1.00 expect dE=-0.511E-02 dE for cont linesearch -0.148E-05
 trial: gam= 2.33484 g(F)=  0.805E-03 g(S)=  0.432E-02 ort = 0.594E-04 (trialstep = 0.121E+00)
 search vector abs. value=  0.184E-01
 bond charge predicted
       N       E                     dE             d eps       ncg     rms          rms(c)
DAV:   1    -0.331341301235E+03   -0.49844E-03   -0.29225E-02 15248   0.594E-01    0.108E-01
DAV:   2    -0.331341562575E+03   -0.26134E-03   -0.37363E-03 22720   0.238E-01    0.119E-01
DAV:   3    -0.331341379881E+03    0.18269E-03   -0.18483E-03 19176   0.138E-01    0.669E-02
DAV:   4    -0.331341334421E+03    0.45461E-04   -0.33674E-04 12672   0.713E-02
  18 F= -.33134133E+03 E0= -.33134145E+03  d E =-.588561E-03
 ZBRENT: can't locate minimum, use default step
 trial-energy change:   -0.000589  1 .order   -0.000568   -0.000635   -0.000501
 step:   0.4823(harm=  0.5723)  dis= 0.00321  next Energy=  -331.342252 (dE=-0.151E-02)
 bond charge predicted
       N       E                     dE             d eps       ncg     rms          rms(c)
DAV:   1    -0.331341933655E+03   -0.55377E-03   -0.26071E-01 15120   0.177E+00    0.298E-01
DAV:   2    -0.331342906677E+03   -0.97302E-03   -0.21586E-02 21776   0.571E-01    0.223E-01
DAV:   3    -0.331342820470E+03    0.86207E-04   -0.98332E-03 21984   0.335E-01    0.195E-01
DAV:   4    -0.331342293620E+03    0.52685E-03   -0.37420E-03 20296   0.208E-01    0.954E-02
DAV:   5    -0.331342168147E+03    0.12547E-03   -0.16706E-03 19104   0.138E-01    0.596E-02
DAV:   6    -0.331342105365E+03    0.62782E-04   -0.68437E-04 15584   0.878E-02
  19 F= -.33134211E+03 E0= -.33134219E+03  d E =-.135951E-02
 curvature:  -0.96 expect dE=-0.131E-02 dE for cont linesearch -0.262E-04
 trial: gam= 0.06787 g(F)=  0.132E-02 g(S)=  0.462E-04 ort = 0.708E-03 (trialstep = 0.193E+00)
 search vector abs. value=  0.154E-02
 bond charge predicted
       N       E                     dE             d eps       ncg     rms          rms(c)
DAV:   1    -0.331342329672E+03   -0.16152E-03   -0.74236E-03 16152   0.292E-01    0.399E-02
DAV:   2    -0.331342384336E+03   -0.54664E-04   -0.62283E-04 15536   0.108E-01
  20 F= -.33134238E+03 E0= -.33134246E+03  d E =-.278970E-03
 ZBRENT: can't locate minimum, use default step
 trial-energy change:   -0.000279  1 .order   -0.000239   -0.000272   -0.000207
 step:   0.7716(harm=  0.8032)  dis= 0.00169  next Energy=  -331.342672 (dE=-0.567E-03)
 bond charge predicted
       N       E                     dE             d eps       ncg     rms          rms(c)
DAV:   1    -0.331342718040E+03   -0.38837E-03   -0.66590E-02 15624   0.859E-01    0.104E-01
DAV:   2    -0.331343006414E+03   -0.28837E-03   -0.44776E-03 23480   0.266E-01    0.851E-02
DAV:   3    -0.331342986292E+03    0.20122E-04   -0.14174E-03 18584   0.114E-01    0.697E-02
DAV:   4    -0.331342915221E+03    0.71070E-04   -0.38557E-04 13120   0.742E-02
  21 F= -.33134292E+03 E0= -.33134302E+03  d E =-.809856E-03
 curvature:  -0.44 expect dE=-0.268E-03 dE for cont linesearch -0.198E-03
 trial: gam=-0.11756 g(F)=  0.551E-03 g(S)=  0.607E-04 ort = 0.834E-03 (trialstep = 0.309E+00)
 search vector abs. value=  0.436E-03
 reached required accuracy - stopping structural energy minimisation
 writing wavefunctions
VASP is done!
