<?xml version="1.0" encoding="ISO-8859-1"?>
<modeling>
 <generator>
  <i name="program" type="string">vasp </i>
  <i name="version" type="string">5.4.4.18Apr17-6-g9f103f2a35  </i>
  <i name="subversion" type="string">(build Aug 09 2018 16:20:53) complex            parallel </i>
  <i name="platform" type="string">LinuxIFC </i>
  <i name="date" type="string">2020 04 13 </i>
  <i name="time" type="string">00:37:22 </i>
 </generator>
 <incar>
  <i type="string" name="SYSTEM"> SQS with 1 vacancy for VFE and VRV</i>
  <i type="string" name="PREC">normal</i>
  <i type="int" name="IALGO">    38</i>
  <i type="int" name="ICHARG">     2</i>
  <i type="int" name="IBRION">     2</i>
  <i type="int" name="NSW">    50</i>
  <i type="int" name="ISIF">     3</i>
  <i type="int" name="ISYM">     0</i>
  <i name="ENCUT">    600.00000000</i>
  <i type="string" name="LREAL"> Auto</i>
  <i type="int" name="ISMEAR">     1</i>
  <i name="SIGMA">      0.20000000</i>
  <v type="int" name="KPOINT_BSE">    -1     0     0     0</v>
  <i type="string" name="GGA"> PS</i>
 </incar>
 <structure name="primitive_cell" >
  <crystal>
   <varray name="basis" >
    <v>      -3.19000000      -3.19000000      -3.19000000 </v>
    <v>       1.59500000       1.59500000      -7.97500000 </v>
    <v>       7.97500000      -7.97500000      -1.59500000 </v>
   </varray>
   <i name="volume">    486.92638500 </i>
   <varray name="rec_basis" >
    <v>      -0.13584117      -0.12539185      -0.05224660 </v>
    <v>       0.04179728       0.06269592      -0.10449321 </v>
    <v>       0.06269592      -0.06269592       0.00000000 </v>
   </varray>
  </crystal>
  <varray name="positions" >
   <v>      -0.03333333      -0.06666667       0.40000000 </v>
   <v>       0.30000000      -0.40000000       0.40000000 </v>
   <v>      -0.10000000      -0.20000000       0.20000000 </v>
   <v>       0.06666667       0.13333333       0.20000000 </v>
   <v>       0.46666667      -0.06666667       0.40000000 </v>
   <v>      -0.13333333      -0.26666667      -0.40000000 </v>
   <v>       0.03333333       0.06666667      -0.40000000 </v>
   <v>      -0.36666667       0.26666667       0.40000000 </v>
   <v>       0.40000000      -0.20000000       0.20000000 </v>
   <v>      -0.43333333       0.13333333       0.20000000 </v>
   <v>       0.36666667      -0.26666667      -0.40000000 </v>
   <v>       0.13333333       0.26666667       0.40000000 </v>
   <v>      -0.46666667       0.06666667      -0.40000000 </v>
   <v>       0.23333333       0.46666667       0.20000000 </v>
   <v>       0.20000000       0.40000000      -0.40000000 </v>
   <v>       0.00000000       0.00000000       0.00000000 </v>
   <v>      -0.06666667      -0.13333333      -0.20000000 </v>
   <v>      -0.30000000       0.40000000      -0.40000000 </v>
   <v>      -0.26666667       0.46666667       0.20000000 </v>
   <v>       0.33333333      -0.33333333       0.00000000 </v>
   <v>       0.43333333      -0.13333333      -0.20000000 </v>
   <v>      -0.50000000       0.00000000       0.00000000 </v>
   <v>       0.26666667      -0.46666667      -0.20000000 </v>
   <v>      -0.33333333       0.33333333       0.00000000 </v>
   <v>      -0.40000000       0.20000000      -0.20000000 </v>
   <v>      -0.16666667      -0.33333333       0.00000000 </v>
   <v>      -0.23333333      -0.46666667      -0.20000000 </v>
   <v>       0.16666667       0.33333333       0.00000000 </v>
   <v>       0.10000000       0.20000000      -0.20000000 </v>
  </varray>
 </structure>
 <varray name="primitive_index" >
  <v type="int" >        1 </v>
  <v type="int" >       17 </v>
  <v type="int" >        7 </v>
  <v type="int" >       23 </v>
  <v type="int" >       19 </v>
  <v type="int" >       18 </v>
  <v type="int" >        6 </v>
  <v type="int" >        2 </v>
  <v type="int" >       15 </v>
  <v type="int" >       14 </v>
  <v type="int" >       10 </v>
  <v type="int" >       11 </v>
  <v type="int" >       27 </v>
  <v type="int" >       29 </v>
  <v type="int" >       22 </v>
  <v type="int" >        4 </v>
  <v type="int" >       13 </v>
  <v type="int" >       25 </v>
  <v type="int" >        8 </v>
  <v type="int" >       28 </v>
  <v type="int" >       16 </v>
  <v type="int" >        3 </v>
  <v type="int" >       21 </v>
  <v type="int" >        9 </v>
  <v type="int" >       26 </v>
  <v type="int" >       12 </v>
  <v type="int" >       24 </v>
  <v type="int" >       20 </v>
  <v type="int" >        5 </v>
 </varray>
 <kpoints>
  <generation param="Gamma">
   <v type="int" name="divisions">       5        5        5 </v>
   <v name="usershift">      0.00000000       0.00000000       0.00000000 </v>
   <v name="genvec1">      0.20000000      -0.00000000      -0.00000000 </v>
   <v name="genvec2">      0.00000000       0.20000000       0.00000000 </v>
   <v name="genvec3">      0.00000000       0.00000000       0.20000000 </v>
   <v name="shift">      0.00000000       0.00000000       0.00000000 </v>
  </generation>
  <varray name="kpointlist" >
   <v>       0.00000000       0.00000000       0.00000000 </v>
   <v>       0.20000000      -0.00000000       0.00000000 </v>
   <v>       0.40000000      -0.00000000       0.00000000 </v>
   <v>       0.00000000       0.20000000       0.00000000 </v>
   <v>       0.20000000       0.20000000      -0.00000000 </v>
   <v>       0.40000000       0.20000000      -0.00000000 </v>
   <v>      -0.40000000       0.20000000      -0.00000000 </v>
   <v>      -0.20000000       0.20000000       0.00000000 </v>
   <v>       0.00000000       0.40000000       0.00000000 </v>
   <v>       0.20000000       0.40000000       0.00000000 </v>
   <v>       0.40000000       0.40000000      -0.00000000 </v>
   <v>      -0.40000000       0.40000000       0.00000000 </v>
   <v>      -0.20000000       0.40000000       0.00000000 </v>
   <v>       0.00000000       0.00000000       0.20000000 </v>
   <v>       0.20000000      -0.00000000       0.20000000 </v>
   <v>       0.40000000       0.00000000       0.20000000 </v>
   <v>      -0.40000000       0.00000000       0.20000000 </v>
   <v>      -0.20000000       0.00000000       0.20000000 </v>
   <v>       0.00000000       0.20000000       0.20000000 </v>
   <v>       0.20000000       0.20000000       0.20000000 </v>
   <v>       0.40000000       0.20000000       0.20000000 </v>
   <v>      -0.40000000       0.20000000       0.20000000 </v>
   <v>      -0.20000000       0.20000000       0.20000000 </v>
   <v>       0.00000000       0.40000000       0.20000000 </v>
   <v>       0.20000000       0.40000000       0.20000000 </v>
   <v>       0.40000000       0.40000000       0.20000000 </v>
   <v>      -0.40000000       0.40000000       0.20000000 </v>
   <v>      -0.20000000       0.40000000       0.20000000 </v>
   <v>       0.00000000      -0.40000000       0.20000000 </v>
   <v>       0.20000000      -0.40000000       0.20000000 </v>
   <v>       0.40000000      -0.40000000       0.20000000 </v>
   <v>      -0.40000000      -0.40000000       0.20000000 </v>
   <v>      -0.20000000      -0.40000000       0.20000000 </v>
   <v>       0.00000000      -0.20000000       0.20000000 </v>
   <v>       0.20000000      -0.20000000       0.20000000 </v>
   <v>       0.40000000      -0.20000000       0.20000000 </v>
   <v>      -0.40000000      -0.20000000       0.20000000 </v>
   <v>      -0.20000000      -0.20000000       0.20000000 </v>
   <v>       0.00000000       0.00000000       0.40000000 </v>
   <v>       0.20000000      -0.00000000       0.40000000 </v>
   <v>       0.40000000      -0.00000000       0.40000000 </v>
   <v>      -0.40000000       0.00000000       0.40000000 </v>
   <v>      -0.20000000       0.00000000       0.40000000 </v>
   <v>      -0.00000000       0.20000000       0.40000000 </v>
   <v>       0.20000000       0.20000000       0.40000000 </v>
   <v>       0.40000000       0.20000000       0.40000000 </v>
   <v>      -0.40000000       0.20000000       0.40000000 </v>
   <v>      -0.20000000       0.20000000       0.40000000 </v>
   <v>       0.00000000       0.40000000       0.40000000 </v>
   <v>       0.20000000       0.40000000       0.40000000 </v>
   <v>       0.40000000       0.40000000       0.40000000 </v>
   <v>      -0.40000000       0.40000000       0.40000000 </v>
   <v>      -0.20000000       0.40000000       0.40000000 </v>
   <v>       0.00000000      -0.40000000       0.40000000 </v>
   <v>       0.20000000      -0.40000000       0.40000000 </v>
   <v>       0.40000000      -0.40000000       0.40000000 </v>
   <v>      -0.40000000      -0.40000000       0.40000000 </v>
   <v>      -0.20000000      -0.40000000       0.40000000 </v>
   <v>       0.00000000      -0.20000000       0.40000000 </v>
   <v>       0.20000000      -0.20000000       0.40000000 </v>
   <v>       0.40000000      -0.20000000       0.40000000 </v>
   <v>      -0.40000000      -0.20000000       0.40000000 </v>
   <v>      -0.20000000      -0.20000000       0.40000000 </v>
  </varray>
  <varray name="weights" >
   <v>       0.00800000 </v>
   <v>       0.01600000 </v>
   <v>       0.01600000 </v>
   <v>       0.01600000 </v>
   <v>       0.01600000 </v>
   <v>       0.01600000 </v>
   <v>       0.01600000 </v>
   <v>       0.01600000 </v>
   <v>       0.01600000 </v>
   <v>       0.01600000 </v>
   <v>       0.01600000 </v>
   <v>       0.01600000 </v>
   <v>       0.01600000 </v>
   <v>       0.01600000 </v>
   <v>       0.01600000 </v>
   <v>       0.01600000 </v>
   <v>       0.01600000 </v>
   <v>       0.01600000 </v>
   <v>       0.01600000 </v>
   <v>       0.01600000 </v>
   <v>       0.01600000 </v>
   <v>       0.01600000 </v>
   <v>       0.01600000 </v>
   <v>       0.01600000 </v>
   <v>       0.01600000 </v>
   <v>       0.01600000 </v>
   <v>       0.01600000 </v>
   <v>       0.01600000 </v>
   <v>       0.01600000 </v>
   <v>       0.01600000 </v>
   <v>       0.01600000 </v>
   <v>       0.01600000 </v>
   <v>       0.01600000 </v>
   <v>       0.01600000 </v>
   <v>       0.01600000 </v>
   <v>       0.01600000 </v>
   <v>       0.01600000 </v>
   <v>       0.01600000 </v>
   <v>       0.01600000 </v>
   <v>       0.01600000 </v>
   <v>       0.01600000 </v>
   <v>       0.01600000 </v>
   <v>       0.01600000 </v>
   <v>       0.01600000 </v>
   <v>       0.01600000 </v>
   <v>       0.01600000 </v>
   <v>       0.01600000 </v>
   <v>       0.01600000 </v>
   <v>       0.01600000 </v>
   <v>       0.01600000 </v>
   <v>       0.01600000 </v>
   <v>       0.01600000 </v>
   <v>       0.01600000 </v>
   <v>       0.01600000 </v>
   <v>       0.01600000 </v>
   <v>       0.01600000 </v>
   <v>       0.01600000 </v>
   <v>       0.01600000 </v>
   <v>       0.01600000 </v>
   <v>       0.01600000 </v>
   <v>       0.01600000 </v>
   <v>       0.01600000 </v>
   <v>       0.01600000 </v>
  </varray>
 </kpoints>
 <parameters>
  <separator name="general" >
   <i type="string" name="SYSTEM">SQS with 1 vacancy for VFE and VRV</i>
   <i type="logical" name="LCOMPAT"> F  </i>
  </separator>
  <separator name="electronic" >
   <i type="string" name="PREC">normal</i>
   <i name="ENMAX">    600.00000000</i>
   <i name="ENAUG">    455.65900000</i>
   <i name="EDIFF">      0.00010000</i>
   <i type="int" name="IALGO">    38</i>
   <i type="int" name="IWAVPR">    11</i>
   <i type="int" name="NBANDS">   120</i>
   <i name="NELECT">    198.00000000</i>
   <i type="int" name="TURBO">     0</i>
   <i type="int" name="IRESTART">     0</i>
   <i type="int" name="NREBOOT">     0</i>
   <i type="int" name="NMIN">     0</i>
   <i name="EREF">      0.00000000</i>
   <separator name="electronic smearing" >
    <i type="int" name="ISMEAR">     1</i>
    <i name="SIGMA">      0.20000000</i>
    <i name="KSPACING">      0.50000000</i>
    <i type="logical" name="KGAMMA"> T  </i>
   </separator>
   <separator name="electronic projectors" >
    <i type="logical" name="LREAL"> T  </i>
    <v name="ROPT">     -0.00050000     -0.00050000     -0.00050000     -0.00050000     -0.00050000</v>
    <i type="int" name="LMAXPAW">  -100</i>
    <i type="int" name="LMAXMIX">     2</i>
    <i type="logical" name="NLSPLINE"> F  </i>
   </separator>
   <separator name="electronic startup" >
    <i type="int" name="ISTART">     0</i>
    <i type="int" name="ICHARG">     2</i>
    <i type="int" name="INIWAV">     1</i>
   </separator>
   <separator name="electronic spin" >
    <i type="int" name="ISPIN">     1</i>
    <i type="logical" name="LNONCOLLINEAR"> F  </i>
    <v name="MAGMOM">      1.00000000      1.00000000      1.00000000      1.00000000      1.00000000      1.00000000      1.00000000      1.00000000      1.00000000      1.00000000      1.00000000      1.00000000      1.00000000      1.00000000      1.00000000      1.00000000      1.00000000      1.00000000      1.00000000      1.00000000
      1.00000000      1.00000000      1.00000000      1.00000000      1.00000000      1.00000000      1.00000000      1.00000000      1.00000000</v>
    <i name="NUPDOWN">     -1.00000000</i>
    <i type="logical" name="LSORBIT"> F  </i>
    <v name="SAXIS">      0.00000000      0.00000000      1.00000000</v>
    <i type="logical" name="LSPIRAL"> F  </i>
    <v name="QSPIRAL">      0.00000000      0.00000000      0.00000000</v>
    <i type="logical" name="LZEROZ"> F  </i>
   </separator>
   <separator name="electronic exchange-correlation" >
    <i type="logical" name="LASPH"> F  </i>
    <i type="logical" name="LMETAGGA"> F  </i>
   </separator>
   <separator name="electronic convergence" >
    <i type="int" name="NELM">    60</i>
    <i type="int" name="NELMDL">    -5</i>
    <i type="int" name="NELMIN">     2</i>
    <i name="ENINI">    600.00000000</i>
    <separator name="electronic convergence detail" >
     <i type="logical" name="LDIAG"> T  </i>
     <i type="logical" name="LSUBROT"> F  </i>
     <i name="WEIMIN">      0.00100000</i>
     <i name="EBREAK">      0.00000021</i>
     <i name="DEPER">      0.30000000</i>
     <i type="int" name="NRMM">     4</i>
     <i name="TIME">      0.40000000</i>
    </separator>
   </separator>
   <separator name="electronic mixer" >
    <i name="AMIX">      0.40000000</i>
    <i name="BMIX">      1.00000000</i>
    <i name="AMIN">      0.10000000</i>
    <i name="AMIX_MAG">      1.60000000</i>
    <i name="BMIX_MAG">      1.00000000</i>
    <separator name="electronic mixer details" >
     <i type="int" name="IMIX">     4</i>
     <i type="logical" name="MIXFIRST"> F  </i>
     <i type="int" name="MAXMIX">   -45</i>
     <i name="WC">    100.00000000</i>
     <i type="int" name="INIMIX">     1</i>
     <i type="int" name="MIXPRE">     1</i>
     <i type="int" name="MREMOVE">     5</i>
    </separator>
   </separator>
   <separator name="electronic dipolcorrection" >
    <i type="logical" name="LDIPOL"> F  </i>
    <i type="logical" name="LMONO"> F  </i>
    <i type="int" name="IDIPOL">     0</i>
    <i name="EPSILON">      1.00000000</i>
    <v name="DIPOL">   -100.00000000   -100.00000000   -100.00000000</v>
    <i name="EFIELD">      0.00000000</i>
   </separator>
  </separator>
  <separator name="grids" >
   <i type="int" name="NGX">    36</i>
   <i type="int" name="NGY">    50</i>
   <i type="int" name="NGZ">    70</i>
   <i type="int" name="NGXF">    72</i>
   <i type="int" name="NGYF">   100</i>
   <i type="int" name="NGZF">   140</i>
   <i type="logical" name="ADDGRID"> F  </i>
  </separator>
  <separator name="ionic" >
   <i type="int" name="NSW">    50</i>
   <i type="int" name="IBRION">     2</i>
   <i type="int" name="MDALGO">     0</i>
   <i type="int" name="ISIF">     3</i>
   <i name="PSTRESS">      0.00000000</i>
   <i name="EDIFFG">      0.00100000</i>
   <i type="int" name="NFREE">     1</i>
   <i name="POTIM">      0.50000000</i>
   <i name="SMASS">     -3.00000000</i>
   <i name="SCALEE">      1.00000000</i>
  </separator>
  <separator name="ionic md" >
   <i name="TEBEG">      0.00010000</i>
   <i name="TEEND">      0.00010000</i>
   <i type="int" name="NBLOCK">     1</i>
   <i type="int" name="KBLOCK">    50</i>
   <i type="int" name="NPACO">   256</i>
   <i name="APACO">     16.00000000</i>
  </separator>
  <separator name="symmetry" >
   <i type="int" name="ISYM">     0</i>
   <i name="SYMPREC">      0.00001000</i>
  </separator>
  <separator name="dos" >
   <i type="int" name="LORBIT">     0</i>
   <v name="RWIGS">     -1.00000000     -1.00000000     -1.00000000     -1.00000000     -1.00000000</v>
   <i type="int" name="NEDOS">   301</i>
   <i name="EMIN">     10.00000000</i>
   <i name="EMAX">    -10.00000000</i>
   <i name="EFERMI">      0.00000000</i>
  </separator>
  <separator name="writing" >
   <i type="int" name="NWRITE">     2</i>
   <i type="logical" name="LWAVE"> T  </i>
   <i type="logical" name="LDOWNSAMPLE"> F  </i>
   <i type="logical" name="LCHARG"> T  </i>
   <i type="logical" name="LPARD"> F  </i>
   <i type="logical" name="LVTOT"> F  </i>
   <i type="logical" name="LVHAR"> F  </i>
   <i type="logical" name="LELF"> F  </i>
   <i type="logical" name="LOPTICS"> F  </i>
   <v name="STM">      0.00000000      0.00000000      0.00000000      0.00000000      0.00000000      0.00000000      0.00000000</v>
  </separator>
  <separator name="performance" >
   <i type="int" name="NPAR">     8</i>
   <i type="int" name="NSIM">     4</i>
   <i type="int" name="NBLK">    -1</i>
   <i type="logical" name="LPLANE"> T  </i>
   <i type="logical" name="LSCALAPACK"> T  </i>
   <i type="logical" name="LSCAAWARE"> F  </i>
   <i type="logical" name="LSCALU"> F  </i>
   <i type="logical" name="LASYNC"> F  </i>
   <i type="logical" name="LORBITALREAL"> F  </i>
  </separator>
  <separator name="miscellaneous" >
   <i type="int" name="IDIOT">     3</i>
   <i type="int" name="ISPECIAL">     0</i>
   <i type="logical" name="LMUSIC"> F  </i>
   <v name="POMASS">     92.91000000     95.94000000    180.94800000     47.88000000    183.85000000</v>
   <v name="DARWINR">      0.00000000      0.00000000      0.00000000      0.00000000      0.00000000</v>
   <v name="DARWINV">      1.00000000      1.00000000      1.00000000      1.00000000      1.00000000</v>
   <i type="logical" name="LCORR"> T  </i>
  </separator>
  <i type="logical" name="GGA_COMPAT"> T  </i>
  <i type="logical" name="LBERRY"> F  </i>
  <i type="int" name="ICORELEVEL">     0</i>
  <i type="logical" name="LDAU"> F  </i>
  <i type="int" name="I_CONSTRAINED_M">     0</i>
  <separator name="electronic exchange-correlation" >
   <i type="string" name="GGA">PS</i>
   <i type="int" name="VOSKOWN">     0</i>
   <i type="logical" name="LHFCALC"> F  </i>
   <i type="string" name="PRECFOCK"></i>
   <i type="logical" name="LSYMGRAD"> F  </i>
   <i type="logical" name="LHFONE"> F  </i>
   <i type="logical" name="LRHFCALC"> F  </i>
   <i type="logical" name="LTHOMAS"> F  </i>
   <i type="logical" name="LMODELHF"> F  </i>
   <i name="ENCUT4O">     -1.00000000</i>
   <i type="int" name="EXXOEP">     0</i>
   <i type="int" name="FOURORBIT">     0</i>
   <i name="AEXX">      0.00000000</i>
   <i name="HFALPHA">      0.00000000</i>
   <i name="MCALPHA">      0.00000000</i>
   <i name="ALDAX">      1.00000000</i>
   <i name="AGGAX">      1.00000000</i>
   <i name="ALDAC">      1.00000000</i>
   <i name="AGGAC">      1.00000000</i>
   <i type="int" name="NKREDX">     1</i>
   <i type="int" name="NKREDY">     1</i>
   <i type="int" name="NKREDZ">     1</i>
   <i type="logical" name="SHIFTRED"> F  </i>
   <i type="logical" name="ODDONLY"> F  </i>
   <i type="logical" name="EVENONLY"> F  </i>
   <i type="int" name="LMAXFOCK">     0</i>
   <i type="int" name="NMAXFOCKAE">     0</i>
   <i type="logical" name="LFOCKAEDFT"> F  </i>
   <i name="HFSCREEN">      0.00000000</i>
   <i name="HFSCREENC">      0.00000000</i>
   <i type="int" name="NBANDSGWLOW">     0</i>
  </separator>
  <separator name="vdW DFT" >
   <i type="logical" name="LUSE_VDW"> F  </i>
   <i name="Zab_VDW">     -0.84910000</i>
   <i name="PARAM1">      0.12340000</i>
   <i name="PARAM2">      1.00000000</i>
   <i name="PARAM3">      0.00000000</i>
  </separator>
  <separator name="model GW" >
   <i type="int" name="MODEL_GW">     0</i>
   <i name="MODEL_EPS0">     10.07433900</i>
   <i name="MODEL_ALPHA">      1.00000000</i>
  </separator>
  <separator name="linear response parameters" >
   <i type="logical" name="LEPSILON"> F  </i>
   <i type="logical" name="LRPA"> F  </i>
   <i type="logical" name="LNABLA"> F  </i>
   <i type="logical" name="LVEL"> F  </i>
   <i type="int" name="KINTER">     0</i>
   <i name="CSHIFT">      0.10000000</i>
   <i name="OMEGAMAX">     -1.00000000</i>
   <i name="DEG_THRESHOLD">      0.00200000</i>
   <i name="RTIME">     -0.10000000</i>
   <i name="WPLASMAI">      0.00000000</i>
   <v name="DFIELD">      0.00000000      0.00000000      0.00000000</v>
   <v name="WPLASMA">      0.00000000      0.00000000      0.00000000      0.00000000      0.00000000      0.00000000      0.00000000      0.00000000      0.00000000</v>
  </separator>
  <separator name="orbital magnetization" >
   <i type="logical" name="NUCIND"> F  </i>
   <v name="MAGPOS">      0.00000000      0.00000000      0.00000000</v>
   <i type="logical" name="LNICSALL"> T  </i>
   <i type="logical" name="ORBITALMAG"> F  </i>
   <i type="logical" name="LMAGBLOCH"> F  </i>
   <i type="logical" name="LCHIMAG"> F  </i>
   <i type="logical" name="LGAUGE"> T  </i>
   <i type="int" name="MAGATOM">     0</i>
   <v name="MAGDIPOL">      0.00000000      0.00000000      0.00000000</v>
   <v name="AVECCONST">      0.00000000      0.00000000      0.00000000</v>
  </separator>
  <separator name="response functions" >
   <i type="logical" name="LADDER"> F  </i>
   <i type="logical" name="LRPAFORCE"> F  </i>
   <i type="logical" name="LFXC"> F  </i>
   <i type="logical" name="LHARTREE"> T  </i>
   <i type="int" name="IBSE">     0</i>
   <v type="int" name="KPOINT">    -1     0     0     0</v>
   <i type="logical" name="LTCTE"> F  </i>
   <i type="logical" name="LTETE"> F  </i>
   <i type="logical" name="LTRIPLET"> F  </i>
   <i type="logical" name="LFXCEPS"> F  </i>
   <i type="logical" name="LFXHEG"> F  </i>
   <i type="int" name="NATURALO">     2</i>
   <i type="logical" name="L2ORDER"> F  </i>
   <i type="logical" name="LMP2LT"> F  </i>
   <i type="logical" name="LUSEW"> F  </i>
   <i name="ENCUTGW">     -2.00000000</i>
   <i name="ENCUTGWSOFT">     -2.00000000</i>
   <i name="ENCUTLF">     -1.00000000</i>
   <i type="int" name="LMAXMP2">    -1</i>
   <i name="SCISSOR">      0.00000000</i>
   <i type="int" name="NOMEGA">     0</i>
   <i type="int" name="NOMEGAR">     0</i>
   <i type="int" name="NBANDSGW">    -1</i>
   <i type="int" name="NBANDSO">    -1</i>
   <i type="int" name="NBANDSV">    -1</i>
   <i type="int" name="NELM">     1</i>
   <i type="int" name="NELMHF">     1</i>
   <i type="int" name="DIM">     3</i>
   <i type="int" name="ANTIRES">     0</i>
   <i name="OMEGAMAX">    -30.00000000</i>
   <i name="OMEGAMIN">    -30.00000000</i>
   <i name="OMEGATL">   -200.00000000</i>
   <i type="int" name="OMEGAGRID">   140</i>
   <i name="CSHIFT">     -0.10000000</i>
   <i type="logical" name="SELFENERGY"> F  </i>
   <i type="logical" name="LSPECTRAL"> F  </i>
   <i type="logical" name="LSPECTRALGW"> F  </i>
   <i type="logical" name="LSINGLES"> F  </i>
   <i type="logical" name="LFERMIGW"> F  </i>
   <i type="logical" name="ODDONLYGW"> F  </i>
   <i type="logical" name="EVENONLYGW"> F  </i>
   <i type="int" name="NKREDLFX">     1</i>
   <i type="int" name="NKREDLFY">     1</i>
   <i type="int" name="NKREDLFZ">     1</i>
   <i type="int" name="MAXMEM">  2800</i>
   <i type="int" name="TELESCOPE">     0</i>
   <i type="int" name="TAUPAR">     1</i>
   <i type="int" name="OMEGAPAR">    -1</i>
   <i name="LAMBDA">      1.00000000</i>
  </separator>
  <separator name="External order field" >
   <i name="OFIELD_KAPPA">      0.00000000</i>
   <v name="OFIELD_K">      0.00000000      0.00000000      0.00000000</v>
   <i name="OFIELD_Q6_NEAR">      0.00000000</i>
   <i name="OFIELD_Q6_FAR">      0.00000000</i>
   <i name="OFIELD_A">      0.00000000</i>
  </separator>
  <separator name="solvation model" >
   <i type="logical" name="LSOL"> F  </i>
  </separator>
 </parameters>
 <atominfo>
  <atoms>      29 </atoms>
  <types>       5 </types>
  <array name="atoms" >
   <dimension dim="1">ion</dimension>
   <field type="string">element</field>
   <field type="int">atomtype</field>
   <set>
    <rc><c>Nb</c><c>   1</c></rc>
    <rc><c>Nb</c><c>   1</c></rc>
    <rc><c>Nb</c><c>   1</c></rc>
    <rc><c>Nb</c><c>   1</c></rc>
    <rc><c>Nb</c><c>   1</c></rc>
    <rc><c>Nb</c><c>   1</c></rc>
    <rc><c>Mo</c><c>   2</c></rc>
    <rc><c>Mo</c><c>   2</c></rc>
    <rc><c>Mo</c><c>   2</c></rc>
    <rc><c>Mo</c><c>   2</c></rc>
    <rc><c>Mo</c><c>   2</c></rc>
    <rc><c>Ta</c><c>   3</c></rc>
    <rc><c>Ta</c><c>   3</c></rc>
    <rc><c>Ta</c><c>   3</c></rc>
    <rc><c>Ta</c><c>   3</c></rc>
    <rc><c>Ta</c><c>   3</c></rc>
    <rc><c>Ta</c><c>   3</c></rc>
    <rc><c>Ti</c><c>   4</c></rc>
    <rc><c>Ti</c><c>   4</c></rc>
    <rc><c>Ti</c><c>   4</c></rc>
    <rc><c>Ti</c><c>   4</c></rc>
    <rc><c>Ti</c><c>   4</c></rc>
    <rc><c>Ti</c><c>   4</c></rc>
    <rc><c>W </c><c>   5</c></rc>
    <rc><c>W </c><c>   5</c></rc>
    <rc><c>W </c><c>   5</c></rc>
    <rc><c>W </c><c>   5</c></rc>
    <rc><c>W </c><c>   5</c></rc>
    <rc><c>W </c><c>   5</c></rc>
   </set>
  </array>
  <array name="atomtypes" >
   <dimension dim="1">type</dimension>
   <field type="int">atomspertype</field>
   <field type="string">element</field>
   <field>mass</field>
   <field>valence</field>
   <field type="string">pseudopotential</field>
   <set>
    <rc><c>   6</c><c>Nb</c><c>     92.91000000</c><c>     13.00000000</c><c>  PAW_PBE Nb_sv 25May2007               </c></rc>
    <rc><c>   5</c><c>Mo</c><c>     95.94000000</c><c>      6.00000000</c><c>  PAW_PBE Mo 08Apr2002                  </c></rc>
    <rc><c>   6</c><c>Ta</c><c>    180.94800000</c><c>      5.00000000</c><c>  PAW_PBE Ta 17Jan2003                  </c></rc>
    <rc><c>   6</c><c>Ti</c><c>     47.88000000</c><c>      4.00000000</c><c>  PAW_PBE Ti 08Apr2002                  </c></rc>
    <rc><c>   6</c><c>W </c><c>    183.85000000</c><c>      6.00000000</c><c>  PAW_PBE W 08Apr2002                   </c></rc>
   </set>
  </array>
 </atominfo>
 <structure name="initialpos" >
  <crystal>
   <varray name="basis" >
    <v>      -3.19000000      -3.19000000      -3.19000000 </v>
    <v>       1.59500000       1.59500000      -7.97500000 </v>
    <v>       7.97500000      -7.97500000      -1.59500000 </v>
   </varray>
   <i name="volume">    486.92638500 </i>
   <varray name="rec_basis" >
    <v>      -0.13584117      -0.12539185      -0.05224660 </v>
    <v>       0.04179728       0.06269592      -0.10449321 </v>
    <v>       0.06269592      -0.06269592       0.00000000 </v>
   </varray>
  </crystal>
  <varray name="positions" >
   <v>       0.96666667       0.93333333       0.40000000 </v>
   <v>       0.63333333       0.26666667       0.40000000 </v>
   <v>       0.50000000       0.00000000       0.00000000 </v>
   <v>       0.00000000       0.00000000       0.00000000 </v>
   <v>       0.10000000       0.20000000       0.80000000 </v>
   <v>       0.03333333       0.06666667       0.60000000 </v>
   <v>       0.90000000       0.80000000       0.20000000 </v>
   <v>       0.73333333       0.46666667       0.20000000 </v>
   <v>       0.66666667       0.33333333       0.00000000 </v>
   <v>       0.36666667       0.73333333       0.60000000 </v>
   <v>       0.13333333       0.26666667       0.40000000 </v>
   <v>       0.83333333       0.66666667       0.00000000 </v>
   <v>       0.93333333       0.86666667       0.80000000 </v>
   <v>       0.56666667       0.13333333       0.20000000 </v>
   <v>       0.40000000       0.80000000       0.20000000 </v>
   <v>       0.43333333       0.86666667       0.80000000 </v>
   <v>       0.30000000       0.60000000       0.40000000 </v>
   <v>       0.86666667       0.73333333       0.60000000 </v>
   <v>       0.46666667       0.93333333       0.40000000 </v>
   <v>       0.16666667       0.33333333       0.00000000 </v>
   <v>       0.26666667       0.53333333       0.80000000 </v>
   <v>       0.20000000       0.40000000       0.60000000 </v>
   <v>       0.06666667       0.13333333       0.20000000 </v>
   <v>       0.76666667       0.53333333       0.80000000 </v>
   <v>       0.70000000       0.40000000       0.60000000 </v>
   <v>       0.60000000       0.20000000       0.80000000 </v>
   <v>       0.53333333       0.06666667       0.60000000 </v>
   <v>       0.33333333       0.66666667       0.00000000 </v>
   <v>       0.23333333       0.46666667       0.20000000 </v>
  </varray>
 </structure>
 <calculation>
  <scstep>
   <time name="dav">   18.13   18.16</time>
   <time name="total">   18.17   18.20</time>
   <energy>
    <i name="alphaZ">   1294.27175739 </i>
    <i name="ewald"> -11398.25406744 </i>
    <i name="hartreedc">  -3267.56655067 </i>
    <i name="XCdc">   -844.16557258 </i>
    <i name="pawpsdc">  12039.63450526 </i>
    <i name="pawaedc"> -10545.81420232 </i>
    <i name="eentropy">     -0.00531544 </i>
    <i name="bandstr">   1883.63767256 </i>
    <i name="atom">  12993.56182891 </i>
    <i name="e_fr_energy">   2155.30005565 </i>
    <i name="e_wo_entrp">   2155.30537110 </i>
    <i name="e_0_energy">   2155.30182747 </i>
   </energy>
  </scstep>
  <scstep>
   <time name="dav">   18.16   18.18</time>
   <time name="total">   18.17   18.19</time>
   <energy>
    <i name="e_fr_energy">     73.20921186 </i>
    <i name="e_wo_entrp">     73.20289319 </i>
    <i name="e_0_energy">     73.20710564 </i>
   </energy>
  </scstep>
  <scstep>
   <time name="dav">   28.47   28.50</time>
   <time name="total">   28.47   28.50</time>
   <energy>
    <i name="e_fr_energy">   -301.44942976 </i>
    <i name="e_wo_entrp">   -301.44339110 </i>
    <i name="e_0_energy">   -301.44741688 </i>
   </energy>
  </scstep>
  <scstep>
   <time name="dav">   25.67   25.70</time>
   <time name="total">   25.67   25.70</time>
   <energy>
    <i name="e_fr_energy">   -348.20076808 </i>
    <i name="e_wo_entrp">   -348.19641037 </i>
    <i name="e_0_energy">   -348.19931551 </i>
   </energy>
  </scstep>
  <scstep>
   <time name="dav">   30.66   30.69</time>
   <time name="total">   31.23   31.26</time>
   <energy>
    <i name="e_fr_energy">   -353.24084712 </i>
    <i name="e_wo_entrp">   -353.23518792 </i>
    <i name="e_0_energy">   -353.23896072 </i>
   </energy>
  </scstep>
  <scstep>
   <time name="dav">   23.53   23.55</time>
   <time name="total">   24.13   24.16</time>
   <energy>
    <i name="e_fr_energy">   -344.97685649 </i>
    <i name="e_wo_entrp">   -344.97421902 </i>
    <i name="e_0_energy">   -344.97597733 </i>
   </energy>
  </scstep>
  <scstep>
   <time name="dav">   24.55   24.58</time>
   <time name="total">   25.15   25.19</time>
   <energy>
    <i name="e_fr_energy">   -355.47023746 </i>
    <i name="e_wo_entrp">   -355.47523299 </i>
    <i name="e_0_energy">   -355.47190264 </i>
   </energy>
  </scstep>
  <scstep>
   <time name="dav">   26.04   26.08</time>
   <time name="total">   26.64   26.67</time>
   <energy>
    <i name="e_fr_energy">   -342.95353061 </i>
    <i name="e_wo_entrp">   -342.95330788 </i>
    <i name="e_0_energy">   -342.95345636 </i>
   </energy>
  </scstep>
  <scstep>
   <time name="dav">   23.67   23.70</time>
   <time name="total">   24.26   24.29</time>
   <energy>
    <i name="e_fr_energy">   -334.22653841 </i>
    <i name="e_wo_entrp">   -334.21961937 </i>
    <i name="e_0_energy">   -334.22423206 </i>
   </energy>
  </scstep>
  <scstep>
   <time name="dav">   24.47   24.54</time>
   <time name="total">   25.08   25.16</time>
   <energy>
    <i name="e_fr_energy">   -331.51624818 </i>
    <i name="e_wo_entrp">   -331.50651138 </i>
    <i name="e_0_energy">   -331.51300258 </i>
   </energy>
  </scstep>
  <scstep>
   <time name="dav">   25.04   25.06</time>
   <time name="total">   25.64   25.68</time>
   <energy>
    <i name="e_fr_energy">   -330.82318098 </i>
    <i name="e_wo_entrp">   -330.80839090 </i>
    <i name="e_0_energy">   -330.81825095 </i>
   </energy>
  </scstep>
  <scstep>
   <time name="dav">   25.97   25.99</time>
   <time name="total">   26.56   26.59</time>
   <energy>
    <i name="e_fr_energy">   -330.78650478 </i>
    <i name="e_wo_entrp">   -330.77718320 </i>
    <i name="e_0_energy">   -330.78339759 </i>
   </energy>
  </scstep>
  <scstep>
   <time name="dav">   24.89   24.92</time>
   <time name="total">   25.49   25.52</time>
   <energy>
    <i name="e_fr_energy">   -330.73782272 </i>
    <i name="e_wo_entrp">   -330.72412640 </i>
    <i name="e_0_energy">   -330.73325728 </i>
   </energy>
  </scstep>
  <scstep>
   <time name="dav">   24.76   24.79</time>
   <time name="total">   25.36   25.39</time>
   <energy>
    <i name="e_fr_energy">   -330.68117962 </i>
    <i name="e_wo_entrp">   -330.66517889 </i>
    <i name="e_0_energy">   -330.67584604 </i>
   </energy>
  </scstep>
  <scstep>
   <time name="dav">   25.58   25.61</time>
   <time name="total">   26.18   26.21</time>
   <energy>
    <i name="e_fr_energy">   -330.68026111 </i>
    <i name="e_wo_entrp">   -330.66570001 </i>
    <i name="e_0_energy">   -330.67540741 </i>
   </energy>
  </scstep>
  <scstep>
   <time name="dav">   25.14   25.16</time>
   <time name="total">   25.75   25.78</time>
   <energy>
    <i name="e_fr_energy">   -330.68080497 </i>
    <i name="e_wo_entrp">   -330.66569041 </i>
    <i name="e_0_energy">   -330.67576678 </i>
   </energy>
  </scstep>
  <scstep>
   <time name="dav">   25.09   25.12</time>
   <time name="total">   25.69   25.72</time>
   <energy>
    <i name="e_fr_energy">   -330.67633711 </i>
    <i name="e_wo_entrp">   -330.66122063 </i>
    <i name="e_0_energy">   -330.67129828 </i>
   </energy>
  </scstep>
  <scstep>
   <time name="dav">   23.90   23.93</time>
   <time name="total">   24.51   24.53</time>
   <energy>
    <i name="e_fr_energy">   -330.67415912 </i>
    <i name="e_wo_entrp">   -330.65956271 </i>
    <i name="e_0_energy">   -330.66929365 </i>
   </energy>
  </scstep>
  <scstep>
   <time name="dav">   23.81   23.84</time>
   <time name="total">   24.42   24.45</time>
   <energy>
    <i name="e_fr_energy">   -330.67388097 </i>
    <i name="e_wo_entrp">   -330.65896730 </i>
    <i name="e_0_energy">   -330.66890974 </i>
   </energy>
  </scstep>
  <scstep>
   <time name="dav">   21.45   21.47</time>
   <time name="total">   22.05   22.08</time>
   <energy>
    <i name="e_fr_energy">   -330.67379887 </i>
    <i name="e_wo_entrp">   -330.65897558 </i>
    <i name="e_0_energy">   -330.66885777 </i>
   </energy>
  </scstep>
  <scstep>
   <time name="dav">   19.02   19.04</time>
   <time name="total">   19.05   19.07</time>
   <energy>
    <i name="alphaZ">   1294.27175739 </i>
    <i name="ewald"> -11398.25406744 </i>
    <i name="hartreedc">  -3129.63632626 </i>
    <i name="XCdc">   -838.49233532 </i>
    <i name="pawpsdc">  21014.01499395 </i>
    <i name="pawaedc"> -19520.38849565 </i>
    <i name="eentropy">     -0.01492516 </i>
    <i name="bandstr">   -745.73619372 </i>
    <i name="atom">  12993.56182891 </i>
    <i name="e_fr_energy">   -330.67376330 </i>
    <i name="e_wo_entrp">   -330.65883814 </i>
    <i name="e_0_energy">   -330.66878824 </i>
   </energy>
  </scstep>
  <structure>
   <crystal>
    <varray name="basis" >
     <v>      -3.19000000      -3.19000000      -3.19000000 </v>
     <v>       1.59500000       1.59500000      -7.97500000 </v>
     <v>       7.97500000      -7.97500000      -1.59500000 </v>
    </varray>
    <i name="volume">    486.92638500 </i>
    <varray name="rec_basis" >
     <v>      -0.13584117      -0.12539185      -0.05224660 </v>
     <v>       0.04179728       0.06269592      -0.10449321 </v>
     <v>       0.06269592      -0.06269592       0.00000000 </v>
    </varray>
   </crystal>
   <varray name="positions" >
    <v>       0.96666667       0.93333333       0.40000000 </v>
    <v>       0.63333333       0.26666667       0.40000000 </v>
    <v>       0.50000000       0.00000000       0.00000000 </v>
    <v>       0.00000000       0.00000000       0.00000000 </v>
    <v>       0.10000000       0.20000000       0.80000000 </v>
    <v>       0.03333333       0.06666667       0.60000000 </v>
    <v>       0.90000000       0.80000000       0.20000000 </v>
    <v>       0.73333333       0.46666667       0.20000000 </v>
    <v>       0.66666667       0.33333333       0.00000000 </v>
    <v>       0.36666667       0.73333333       0.60000000 </v>
    <v>       0.13333333       0.26666667       0.40000000 </v>
    <v>       0.83333333       0.66666667       0.00000000 </v>
    <v>       0.93333333       0.86666667       0.80000000 </v>
    <v>       0.56666667       0.13333333       0.20000000 </v>
    <v>       0.40000000       0.80000000       0.20000000 </v>
    <v>       0.43333333       0.86666667       0.80000000 </v>
    <v>       0.30000000       0.60000000       0.40000000 </v>
    <v>       0.86666667       0.73333333       0.60000000 </v>
    <v>       0.46666667       0.93333333       0.40000000 </v>
    <v>       0.16666667       0.33333333       0.00000000 </v>
    <v>       0.26666667       0.53333333       0.80000000 </v>
    <v>       0.20000000       0.40000000       0.60000000 </v>
    <v>       0.06666667       0.13333333       0.20000000 </v>
    <v>       0.76666667       0.53333333       0.80000000 </v>
    <v>       0.70000000       0.40000000       0.60000000 </v>
    <v>       0.60000000       0.20000000       0.80000000 </v>
    <v>       0.53333333       0.06666667       0.60000000 </v>
    <v>       0.33333333       0.66666667       0.00000000 </v>
    <v>       0.23333333       0.46666667       0.20000000 </v>
   </varray>
  </structure>
  <varray name="forces" >
   <v>      -0.36409629       0.40762218      -0.10649712 </v>
   <v>       0.12895390       0.00580762       0.04675784 </v>
   <v>      -0.01914876       0.09261350      -0.26238556 </v>
   <v>       0.33337637      -0.09174894      -0.13414278 </v>
   <v>       0.14502087       0.47494443      -0.54381558 </v>
   <v>      -0.51145483       0.24225002      -0.16985598 </v>
   <v>       0.03136638      -0.66751990       0.08052054 </v>
   <v>      -0.07591841       0.00563918      -0.04536230 </v>
   <v>       0.15636235       0.46189540      -0.53580732 </v>
   <v>      -0.05786464      -0.23876894       0.54561788 </v>
   <v>       0.01745261       0.36046032      -0.76841768 </v>
   <v>       0.22487649      -0.52404677       0.34068509 </v>
   <v>       0.22968783       0.38231100      -0.04109272 </v>
   <v>      -0.16769952       0.16710423      -0.01613691 </v>
   <v>      -0.59776204      -0.10759334       0.67110188 </v>
   <v>      -0.99274713      -0.06800089       0.66792110 </v>
   <v>       0.14167189      -0.18257519       0.00045454 </v>
   <v>       0.11307854       0.28291764       0.21530314 </v>
   <v>       0.52734885      -0.36819192       0.35778855 </v>
   <v>       0.14874767      -0.32008975      -0.34678804 </v>
   <v>      -0.35507275       0.07405454      -0.25120031 </v>
   <v>      -0.51888669      -0.16790460       0.52860919 </v>
   <v>       0.69868670      -0.27738341      -0.55174729 </v>
   <v>      -0.33772620      -0.08562930       0.51509478 </v>
   <v>       0.91137650       0.24067569      -0.52921333 </v>
   <v>      -0.00726387       0.44495087      -0.11513472 </v>
   <v>      -0.01821338      -0.29464041      -0.26815735 </v>
   <v>      -0.09462908      -0.45657863       0.76794754 </v>
   <v>       0.31047662       0.20742537      -0.05204709 </v>
  </varray>
  <varray name="stress" >
   <v>     -18.72090675      -2.51268704       5.28649716 </v>
   <v>      -2.51268700     -20.78430784      -2.50494741 </v>
   <v>       5.28649720      -2.50494749     -21.89379201 </v>
  </varray>
  <energy>
   <i name="e_fr_energy">   -330.67376330 </i>
   <i name="e_wo_entrp">   -330.66878824 </i>
   <i name="e_0_energy">     -0.01492516 </i>
  </energy>
  <time name="totalsc">  536.09  536.84</time>
 </calculation>
 <calculation>
  <scstep>
   <time name="dav">   18.57   18.62</time>
   <time name="total">   19.17   19.68</time>
   <energy>
    <i name="alphaZ">   1335.30933310 </i>
    <i name="ewald"> -11568.13229844 </i>
    <i name="hartreedc">  -3113.58642002 </i>
    <i name="XCdc">   -834.63312380 </i>
    <i name="pawpsdc">  21014.18088943 </i>
    <i name="pawaedc"> -19520.50734841 </i>
    <i name="eentropy">     -0.00652312 </i>
    <i name="bandstr">   -637.70386896 </i>
    <i name="atom">  12993.56182891 </i>
    <i name="e_fr_energy">   -331.51753131 </i>
    <i name="e_wo_entrp">   -331.51100819 </i>
    <i name="e_0_energy">   -331.51535694 </i>
   </energy>
  </scstep>
  <scstep>
   <time name="dav">   25.30   25.36</time>
   <time name="total">   25.90   25.97</time>
   <energy>
    <i name="e_fr_energy">   -331.70493350 </i>
    <i name="e_wo_entrp">   -331.69756526 </i>
    <i name="e_0_energy">   -331.70247742 </i>
   </energy>
  </scstep>
  <scstep>
   <time name="dav">   25.37   25.43</time>
   <time name="total">   25.97   26.04</time>
   <energy>
    <i name="e_fr_energy">   -331.42417956 </i>
    <i name="e_wo_entrp">   -331.41889133 </i>
    <i name="e_0_energy">   -331.42241682 </i>
   </energy>
  </scstep>
  <scstep>
   <time name="dav">   26.32   26.38</time>
   <time name="total">   26.92   26.99</time>
   <energy>
    <i name="e_fr_energy">   -331.20056625 </i>
    <i name="e_wo_entrp">   -331.19347691 </i>
    <i name="e_0_energy">   -331.19820314 </i>
   </energy>
  </scstep>
  <scstep>
   <time name="dav">   25.10   25.16</time>
   <time name="total">   25.70   25.77</time>
   <energy>
    <i name="e_fr_energy">   -331.03276257 </i>
    <i name="e_wo_entrp">   -331.02590853 </i>
    <i name="e_0_energy">   -331.03047789 </i>
   </energy>
  </scstep>
  <scstep>
   <time name="dav">   26.91   26.94</time>
   <time name="total">   27.51   27.55</time>
   <energy>
    <i name="e_fr_energy">   -330.97359056 </i>
    <i name="e_wo_entrp">   -330.96416902 </i>
    <i name="e_0_energy">   -330.97045005 </i>
   </energy>
  </scstep>
  <scstep>
   <time name="dav">   27.23   27.26</time>
   <time name="total">   27.83   27.87</time>
   <energy>
    <i name="e_fr_energy">   -330.97614409 </i>
    <i name="e_wo_entrp">   -330.96769476 </i>
    <i name="e_0_energy">   -330.97332765 </i>
   </energy>
  </scstep>
  <scstep>
   <time name="dav">   25.89   25.92</time>
   <time name="total">   26.49   26.52</time>
   <energy>
    <i name="e_fr_energy">   -330.97406716 </i>
    <i name="e_wo_entrp">   -330.96539420 </i>
    <i name="e_0_energy">   -330.97117617 </i>
   </energy>
  </scstep>
  <scstep>
   <time name="dav">   25.56   25.63</time>
   <time name="total">   26.18   26.25</time>
   <energy>
    <i name="e_fr_energy">   -330.97439185 </i>
    <i name="e_wo_entrp">   -330.96543768 </i>
    <i name="e_0_energy">   -330.97140713 </i>
   </energy>
  </scstep>
  <scstep>
   <time name="dav">   26.13   26.15</time>
   <time name="total">   26.73   26.76</time>
   <energy>
    <i name="e_fr_energy">   -330.97685584 </i>
    <i name="e_wo_entrp">   -330.96794349 </i>
    <i name="e_0_energy">   -330.97388506 </i>
   </energy>
  </scstep>
  <scstep>
   <time name="dav">   25.80   25.88</time>
   <time name="total">   26.41   26.51</time>
   <energy>
    <i name="e_fr_energy">   -330.97789661 </i>
    <i name="e_wo_entrp">   -330.96913296 </i>
    <i name="e_0_energy">   -330.97497540 </i>
   </energy>
  </scstep>
  <scstep>
   <time name="dav">   24.77   24.80</time>
   <time name="total">   25.38   25.41</time>
   <energy>
    <i name="e_fr_energy">   -330.97764556 </i>
    <i name="e_wo_entrp">   -330.96872402 </i>
    <i name="e_0_energy">   -330.97467172 </i>
   </energy>
  </scstep>
  <scstep>
   <time name="dav">   23.84   23.86</time>
   <time name="total">   24.44   24.47</time>
   <energy>
    <i name="e_fr_energy">   -330.97770837 </i>
    <i name="e_wo_entrp">   -330.96883180 </i>
    <i name="e_0_energy">   -330.97474951 </i>
   </energy>
  </scstep>
  <scstep>
   <time name="dav">   16.85   16.88</time>
   <time name="total">   16.89   16.91</time>
   <energy>
    <i name="alphaZ">   1335.30933310 </i>
    <i name="ewald"> -11568.13229844 </i>
    <i name="hartreedc">  -3056.27384786 </i>
    <i name="XCdc">   -836.27345559 </i>
    <i name="pawpsdc">  22053.55269432 </i>
    <i name="pawaedc"> -20560.43476302 </i>
    <i name="eentropy">     -0.00888215 </i>
    <i name="bandstr">   -692.27832326 </i>
    <i name="atom">  12993.56182891 </i>
    <i name="e_fr_energy">   -330.97771398 </i>
    <i name="e_wo_entrp">   -330.96883183 </i>
    <i name="e_0_energy">   -330.97475327 </i>
   </energy>
  </scstep>
  <structure>
   <crystal>
    <varray name="basis" >
     <v>      -3.16428075      -3.14838700      -3.15917605 </v>
     <v>       1.55656242       1.58631333      -7.88448200 </v>
     <v>       7.90538605      -7.89930952      -1.54593018 </v>
    </varray>
    <i name="volume">    471.96185364 </i>
    <varray name="rec_basis" >
     <v>      -0.13716001      -0.12696691      -0.05262329 </v>
     <v>       0.04256302       0.06328110      -0.10569678 </v>
     <v>       0.06321452      -0.06328090      -0.00025188 </v>
    </varray>
   </crystal>
   <varray name="positions" >
    <v>       0.96685534       0.93436892       0.39766585 </v>
    <v>       0.63233527       0.26670855       0.40037247 </v>
    <v>       0.50022659       0.00156420      -0.00033804 </v>
    <v>      -0.00129161       0.00107094       0.00128584 </v>
    <v>       0.09754727       0.20447034       0.79900211 </v>
    <v>       0.03564776       0.06722433       0.59772033 </v>
    <v>       0.90362948       0.79763835       0.20211386 </v>
    <v>       0.73391107       0.46675932       0.19975332 </v>
    <v>       0.66419837       0.33774670      -0.00092412 </v>
    <v>       0.36711501       0.72974399       0.60054717 </v>
    <v>       0.13297526       0.27166573       0.39896253 </v>
    <v>       0.83417102       0.66381767       0.00226521 </v>
    <v>       0.92961899       0.86849331       0.79953837 </v>
    <v>       0.56679548       0.13358195       0.19898735 </v>
    <v>       0.40287667       0.79508619       0.19851743 </v>
    <v>       0.43856699       0.86109220       0.79720300 </v>
    <v>       0.30017487       0.59973116       0.40098072 </v>
    <v>       0.86367152       0.73333171       0.59948630 </v>
    <v>       0.46453624       0.93147942       0.40270867 </v>
    <v>       0.16850226       0.33441329       0.00141805 </v>
    <v>       0.26917876       0.53410765       0.79870205 </v>
    <v>       0.20308377       0.39578113       0.59893841 </v>
    <v>       0.06515658       0.13668457       0.20295224 </v>
    <v>       0.76809959       0.52979673       0.79923750 </v>
    <v>       0.69390543       0.40523344       0.60202861 </v>
    <v>       0.59764619       0.20191156       0.79863222 </v>
    <v>       0.53591093       0.06709056       0.60083609 </v>
    <v>       0.33477979       0.66122364       0.00109476 </v>
    <v>       0.23017509       0.46818247       0.20031169 </v>
   </varray>
  </structure>
  <varray name="forces" >
   <v>      -0.14501301       0.26428683       0.00381310 </v>
   <v>      -0.00693001       0.04342098      -0.04843258 </v>
   <v>      -0.12898038       0.08484356       0.01991209 </v>
   <v>       0.09286906      -0.05460969      -0.17504323 </v>
   <v>      -0.03161898       0.14578843      -0.08969736 </v>
   <v>      -0.24573359       0.12008622      -0.17573603 </v>
   <v>       0.15866402      -0.37580335       0.07851959 </v>
   <v>       0.09726023      -0.22236016       0.01652154 </v>
   <v>       0.06902691       0.13465824      -0.15509263 </v>
   <v>      -0.09456702      -0.03786328       0.29840366 </v>
   <v>       0.14919213       0.29933601      -0.52538270 </v>
   <v>       0.06127656      -0.14463511       0.00110063 </v>
   <v>       0.00166937       0.03467813      -0.11278017 </v>
   <v>       0.01870382       0.00215432       0.08275885 </v>
   <v>      -0.18104302      -0.18997572       0.12296690 </v>
   <v>      -0.17784046       0.08406809       0.33074524 </v>
   <v>       0.16130033      -0.19674570      -0.02450488 </v>
   <v>      -0.11953306       0.30715344       0.27997319 </v>
   <v>       0.12019655      -0.36865955       0.30782605 </v>
   <v>       0.08799195      -0.21306041      -0.14813595 </v>
   <v>      -0.20840697       0.11059659      -0.02327248 </v>
   <v>      -0.19034735       0.06811015       0.31205595 </v>
   <v>       0.42117166      -0.17186823      -0.40510973 </v>
   <v>      -0.18519528      -0.08920158       0.07190178 </v>
   <v>       0.27804852       0.28246997      -0.37562382 </v>
   <v>       0.00480838       0.20683166      -0.01098994 </v>
   <v>      -0.09825564      -0.04453451      -0.05973426 </v>
   <v>      -0.11720128      -0.05774066       0.34206891 </v>
   <v>       0.20848656      -0.02142468       0.06096827 </v>
  </varray>
  <varray name="stress" >
   <v>      49.53752953      -1.01226088       2.20261072 </v>
   <v>      -1.01226097      47.69641254      -1.62909622 </v>
   <v>       2.20261080      -1.62909623      47.59397220 </v>
  </varray>
  <energy>
   <i name="e_fr_energy">   -330.97771398 </i>
   <i name="e_wo_entrp">   -330.97475327 </i>
   <i name="e_0_energy">     -0.00888215 </i>
  </energy>
  <time name="totalsc">  369.38  372.00</time>
 </calculation>
 <calculation>
  <scstep>
   <time name="dav">   18.69   18.72</time>
   <time name="total">   19.31   19.35</time>
   <energy>
    <i name="alphaZ">   1327.37422482 </i>
    <i name="ewald"> -11536.01183797 </i>
    <i name="hartreedc">  -3059.18037785 </i>
    <i name="XCdc">   -837.00420069 </i>
    <i name="pawpsdc">  22052.95031785 </i>
    <i name="pawaedc"> -20559.79857117 </i>
    <i name="eentropy">     -0.01023832 </i>
    <i name="bandstr">   -712.89565155 </i>
    <i name="atom">  12993.56182891 </i>
    <i name="e_fr_energy">   -331.01450598 </i>
    <i name="e_wo_entrp">   -331.00426765 </i>
    <i name="e_0_energy">   -331.01109320 </i>
   </energy>
  </scstep>
  <scstep>
   <time name="dav">   25.87   25.94</time>
   <time name="total">   26.47   26.56</time>
   <energy>
    <i name="e_fr_energy">   -331.01968939 </i>
    <i name="e_wo_entrp">   -331.00985936 </i>
    <i name="e_0_energy">   -331.01641271 </i>
   </energy>
  </scstep>
  <scstep>
   <time name="dav">   25.58   25.61</time>
   <time name="total">   26.19   26.23</time>
   <energy>
    <i name="e_fr_energy">   -331.01828169 </i>
    <i name="e_wo_entrp">   -331.00798318 </i>
    <i name="e_0_energy">   -331.01484886 </i>
   </energy>
  </scstep>
  <scstep>
   <time name="dav">   26.23   26.26</time>
   <time name="total">   26.83   26.86</time>
   <energy>
    <i name="e_fr_energy">   -331.00458606 </i>
    <i name="e_wo_entrp">   -330.99473010 </i>
    <i name="e_0_energy">   -331.00130074 </i>
   </energy>
  </scstep>
  <scstep>
   <time name="dav">   25.08   25.10</time>
   <time name="total">   25.68   25.71</time>
   <energy>
    <i name="e_fr_energy">   -330.99774969 </i>
    <i name="e_wo_entrp">   -330.98761843 </i>
    <i name="e_0_energy">   -330.99437260 </i>
   </energy>
  </scstep>
  <scstep>
   <time name="dav">   26.86   26.89</time>
   <time name="total">   27.47   27.50</time>
   <energy>
    <i name="e_fr_energy">   -330.99638370 </i>
    <i name="e_wo_entrp">   -330.98653718 </i>
    <i name="e_0_energy">   -330.99310152 </i>
   </energy>
  </scstep>
  <scstep>
   <time name="dav">   24.68   24.70</time>
   <time name="total">   25.28   25.31</time>
   <energy>
    <i name="e_fr_energy">   -330.99624619 </i>
    <i name="e_wo_entrp">   -330.98616793 </i>
    <i name="e_0_energy">   -330.99288677 </i>
   </energy>
  </scstep>
  <scstep>
   <time name="dav">   23.55   23.57</time>
   <time name="total">   24.15   24.18</time>
   <energy>
    <i name="e_fr_energy">   -330.99613741 </i>
    <i name="e_wo_entrp">   -330.98605916 </i>
    <i name="e_0_energy">   -330.99277800 </i>
   </energy>
  </scstep>
  <scstep>
   <time name="dav">   21.02   21.04</time>
   <time name="total">   21.05   21.08</time>
   <energy>
    <i name="alphaZ">   1327.37422482 </i>
    <i name="ewald"> -11536.01183797 </i>
    <i name="hartreedc">  -3070.47416633 </i>
    <i name="XCdc">   -836.67153483 </i>
    <i name="pawpsdc">  21845.84541691 </i>
    <i name="pawaedc"> -20351.98606766 </i>
    <i name="eentropy">     -0.01002119 </i>
    <i name="bandstr">   -702.62398629 </i>
    <i name="atom">  12993.56182891 </i>
    <i name="e_fr_energy">   -330.99614364 </i>
    <i name="e_wo_entrp">   -330.98612244 </i>
    <i name="e_0_energy">   -330.99280324 </i>
   </energy>
  </scstep>
  <structure>
   <crystal>
    <varray name="basis" >
     <v>      -3.16916959      -3.15629700      -3.16503522 </v>
     <v>       1.56386882       1.58796453      -7.90168810 </v>
     <v>       7.91861860      -7.91369712      -1.55525761 </v>
    </varray>
    <i name="volume">    474.78326477 </i>
    <varray name="rec_basis" >
     <v>      -0.13690723      -0.12666461      -0.05255128 </v>
     <v>       0.04241572       0.06316900      -0.10546572 </v>
     <v>       0.06311519      -0.06316880      -0.00020324 </v>
    </varray>
   </crystal>
   <varray name="positions" >
    <v>       0.96682059       0.93417126       0.39811321 </v>
    <v>       0.63252679       0.26670017       0.40030120 </v>
    <v>       0.50018372       0.00126361      -0.00027380 </v>
    <v>      -0.00104385       0.00086404       0.00103904 </v>
    <v>       0.09802023       0.20361103       0.79919239 </v>
    <v>       0.03520455       0.06711874       0.59815700 </v>
    <v>       0.90293059       0.79809151       0.20170851 </v>
    <v>       0.73380026       0.46674171       0.19980050 </v>
    <v>       0.66467427       0.33689829      -0.00074796 </v>
    <v>       0.36702752       0.73043398       0.60044341 </v>
    <v>       0.13304608       0.27070495       0.39915982 </v>
    <v>       0.83400811       0.66436421       0.00183153 </v>
    <v>       0.93033319       0.86814198       0.79962699 </v>
    <v>       0.56677133       0.13353480       0.19918149 </v>
    <v>       0.40232340       0.79603241       0.19880306 </v>
    <v>       0.43756147       0.86216653       0.79774056 </v>
    <v>       0.30014071       0.59978225       0.40079265 </v>
    <v>       0.86424705       0.73333208       0.59958543 </v>
    <v>       0.46494350       0.93183404       0.40219014 </v>
    <v>       0.16814932       0.33420485       0.00114528 </v>
    <v>       0.26869716       0.53395979       0.79895028 </v>
    <v>       0.20249072       0.39659345       0.59914299 </v>
    <v>       0.06544617       0.13603804       0.20238498 </v>
    <v>       0.76782367       0.53047750       0.79938478 </v>
    <v>       0.69507658       0.40422511       0.60163874 </v>
    <v>       0.59809955       0.20154459       0.79889437 </v>
    <v>       0.53541557       0.06700873       0.60067505 </v>
    <v>       0.33449976       0.66226986       0.00088644 </v>
    <v>       0.23078200       0.46789047       0.20025196 </v>
   </varray>
  </structure>
  <varray name="forces" >
   <v>      -0.19334418       0.30276009      -0.01700501 </v>
   <v>       0.02540720       0.03767675      -0.02942356 </v>
   <v>      -0.10726325       0.08962231      -0.03912674 </v>
   <v>       0.14439064      -0.06168824      -0.16877450 </v>
   <v>       0.00847300       0.21964267      -0.18947346 </v>
   <v>      -0.30311578       0.14815505      -0.17872275 </v>
   <v>       0.13218442      -0.44026422       0.07869296 </v>
   <v>       0.06522704      -0.17425025      -0.00069556 </v>
   <v>       0.09463202       0.20646617      -0.24027994 </v>
   <v>      -0.08744538      -0.09071661       0.36176154 </v>
   <v>       0.12359767       0.31702316      -0.57795174 </v>
   <v>       0.09618279      -0.22845268       0.07667492 </v>
   <v>       0.04377013       0.09084550      -0.08899549 </v>
   <v>      -0.01809101       0.04110387       0.05413643 </v>
   <v>      -0.27349124      -0.17403089       0.24207482 </v>
   <v>      -0.35658470       0.04804211       0.39295397 </v>
   <v>       0.15285521      -0.20293925      -0.01214357 </v>
   <v>      -0.07230743       0.30216890       0.26762604 </v>
   <v>       0.19952340      -0.36563485       0.32285112 </v>
   <v>       0.09540540      -0.23349685      -0.19094414 </v>
   <v>      -0.24243033       0.10209948      -0.07020303 </v>
   <v>      -0.25675784       0.01683840       0.34918541 </v>
   <v>       0.48387497      -0.18700663      -0.43439233 </v>
   <v>      -0.22025932      -0.08641460       0.17315497 </v>
   <v>       0.41908841       0.27553162      -0.41730417 </v>
   <v>       0.00634597       0.26001058      -0.03596157 </v>
   <v>      -0.07787840      -0.10036602      -0.10384584 </v>
   <v>      -0.11559953      -0.14290403       0.43801703 </v>
   <v>       0.23361012       0.03017847       0.03811420 </v>
  </varray>
  <varray name="stress" >
   <v>      36.42070244      -1.26899420       2.97449724 </v>
   <v>      -1.26899420      34.52631947      -1.50294206 </v>
   <v>       2.97449716      -1.50294207      34.16857876 </v>
  </varray>
  <energy>
   <i name="e_fr_energy">   -330.99614364 </i>
   <i name="e_wo_entrp">   -330.99280324 </i>
   <i name="e_0_energy">     -0.01002119 </i>
  </energy>
  <time name="totalsc">  240.20  240.82</time>
 </calculation>
 <calculation>
  <scstep>
   <time name="dav">   18.32   18.34</time>
   <time name="total">   18.93   19.16</time>
   <energy>
    <i name="alphaZ">   1312.08689289 </i>
    <i name="ewald"> -11529.09581812 </i>
    <i name="hartreedc">  -3021.71330465 </i>
    <i name="XCdc">   -838.28391173 </i>
    <i name="pawpsdc">  21844.07781563 </i>
    <i name="pawaedc"> -20350.43788743 </i>
    <i name="eentropy">     -0.00291494 </i>
    <i name="bandstr">   -741.38541201 </i>
    <i name="atom">  12993.56182891 </i>
    <i name="e_fr_energy">   -331.19271146 </i>
    <i name="e_wo_entrp">   -331.18979652 </i>
    <i name="e_0_energy">   -331.19173981 </i>
   </energy>
  </scstep>
  <scstep>
   <time name="dav">   24.42   24.45</time>
   <time name="total">   25.03   25.05</time>
   <energy>
    <i name="e_fr_energy">   -331.32875496 </i>
    <i name="e_wo_entrp">   -331.32097136 </i>
    <i name="e_0_energy">   -331.32616043 </i>
   </energy>
  </scstep>
  <scstep>
   <time name="dav">   25.29   25.31</time>
   <time name="total">   25.89   25.92</time>
   <energy>
    <i name="e_fr_energy">   -331.33903795 </i>
    <i name="e_wo_entrp">   -331.33669583 </i>
    <i name="e_0_energy">   -331.33825725 </i>
   </energy>
  </scstep>
  <scstep>
   <time name="dav">   25.41   25.44</time>
   <time name="total">   26.02   26.05</time>
   <energy>
    <i name="e_fr_energy">   -331.26043649 </i>
    <i name="e_wo_entrp">   -331.25621658 </i>
    <i name="e_0_energy">   -331.25902986 </i>
   </energy>
  </scstep>
  <scstep>
   <time name="dav">   25.21   25.23</time>
   <time name="total">   25.81   25.84</time>
   <energy>
    <i name="e_fr_energy">   -331.24505681 </i>
    <i name="e_wo_entrp">   -331.23936375 </i>
    <i name="e_0_energy">   -331.24315913 </i>
   </energy>
  </scstep>
  <scstep>
   <time name="dav">   25.48   25.51</time>
   <time name="total">   26.09   26.12</time>
   <energy>
    <i name="e_fr_energy">   -331.23928762 </i>
    <i name="e_wo_entrp">   -331.23373851 </i>
    <i name="e_0_energy">   -331.23743792 </i>
   </energy>
  </scstep>
  <scstep>
   <time name="dav">   26.50   26.53</time>
   <time name="total">   27.11   27.13</time>
   <energy>
    <i name="e_fr_energy">   -331.23789191 </i>
    <i name="e_wo_entrp">   -331.23260351 </i>
    <i name="e_0_energy">   -331.23612911 </i>
   </energy>
  </scstep>
  <scstep>
   <time name="dav">   26.49   26.52</time>
   <time name="total">   27.09   27.12</time>
   <energy>
    <i name="e_fr_energy">   -331.23688494 </i>
    <i name="e_wo_entrp">   -331.23151297 </i>
    <i name="e_0_energy">   -331.23509428 </i>
   </energy>
  </scstep>
  <scstep>
   <time name="dav">   23.61   23.63</time>
   <time name="total">   24.21   24.24</time>
   <energy>
    <i name="e_fr_energy">   -331.23684472 </i>
    <i name="e_wo_entrp">   -331.23161365 </i>
    <i name="e_0_energy">   -331.23510103 </i>
   </energy>
  </scstep>
  <scstep>
   <time name="dav">   22.81   22.83</time>
   <time name="total">   23.41   23.44</time>
   <energy>
    <i name="e_fr_energy">   -331.23700590 </i>
    <i name="e_wo_entrp">   -331.23167762 </i>
    <i name="e_0_energy">   -331.23522981 </i>
   </energy>
  </scstep>
  <scstep>
   <time name="dav">   24.35   24.37</time>
   <time name="total">   24.95   24.97</time>
   <energy>
    <i name="e_fr_energy">   -331.23721549 </i>
    <i name="e_wo_entrp">   -331.23201974 </i>
    <i name="e_0_energy">   -331.23548357 </i>
   </energy>
  </scstep>
  <scstep>
   <time name="dav">   23.34   23.36</time>
   <time name="total">   23.95   23.98</time>
   <energy>
    <i name="e_fr_energy">   -331.23713116 </i>
    <i name="e_wo_entrp">   -331.23183761 </i>
    <i name="e_0_energy">   -331.23536665 </i>
   </energy>
  </scstep>
  <scstep>
   <time name="dav">   14.00   14.01</time>
   <time name="total">   14.03   14.05</time>
   <energy>
    <i name="alphaZ">   1312.08689289 </i>
    <i name="ewald"> -11529.09581812 </i>
    <i name="hartreedc">  -3040.05600428 </i>
    <i name="XCdc">   -837.67751568 </i>
    <i name="pawpsdc">  21449.63432068 </i>
    <i name="pawaedc"> -19956.58361345 </i>
    <i name="eentropy">     -0.00526389 </i>
    <i name="bandstr">   -723.10192799 </i>
    <i name="atom">  12993.56182891 </i>
    <i name="e_fr_energy">   -331.23710095 </i>
    <i name="e_wo_entrp">   -331.23183705 </i>
    <i name="e_0_energy">   -331.23534631 </i>
   </energy>
  </scstep>
  <structure>
   <crystal>
    <varray name="basis" >
     <v>      -3.18753349      -3.16162265      -3.17886484 </v>
     <v>       1.55316783       1.60028169      -7.92603696 </v>
     <v>       7.95984251      -7.94864182      -1.53585411 </v>
    </varray>
    <i name="volume">    480.31503969 </i>
    <varray name="rec_basis" >
     <v>      -0.13628353      -0.12638490      -0.05222315 </v>
     <v>       0.04249683       0.06287300      -0.10514470 </v>
     <v>       0.06276343      -0.06287919      -0.00039645 </v>
    </varray>
   </crystal>
   <varray name="positions" >
    <v>       0.96663577       0.93500455       0.39616436 </v>
    <v>       0.63186094       0.26688650       0.40046710 </v>
    <v>       0.50043070       0.00217575      -0.00075290 </v>
    <v>      -0.00176495       0.00190364       0.00200763 </v>
    <v>       0.09631514       0.20670160       0.79836353 </v>
    <v>       0.03716290       0.06777916       0.59630789 </v>
    <v>       0.90558681       0.79614846       0.20366896 </v>
    <v>       0.73441900       0.46658248       0.20005760 </v>
    <v>       0.66277430       0.34016591      -0.00138242 </v>
    <v>       0.36736582       0.72744729       0.60071701 </v>
    <v>       0.13219266       0.27536483       0.39834245 </v>
    <v>       0.83472496       0.66248146       0.00347293 </v>
    <v>       0.92815672       0.86948057       0.79932255 </v>
    <v>       0.56669439       0.13356014       0.19858294 </v>
    <v>       0.40493415       0.79236781       0.19790304 </v>
    <v>       0.44072733       0.85803399       0.79570130 </v>
    <v>       0.30036514       0.59952236       0.40184541 </v>
    <v>       0.86168687       0.73302472       0.59873302 </v>
    <v>       0.46393579       0.92968997       0.40443216 </v>
    <v>       0.16973235       0.33498259       0.00237602 </v>
    <v>       0.27054969       0.53443390       0.79775931 </v>
    <v>       0.20439893       0.39331331       0.59817663 </v>
    <v>       0.06419844       0.13908475       0.20492375 </v>
    <v>       0.76934341       0.52788001       0.79878982 </v>
    <v>       0.69026891       0.40883071       0.60288045 </v>
    <v>       0.59612144       0.20301213       0.79781110 </v>
    <v>       0.53742590       0.06725391       0.60112938 </v>
    <v>       0.33549987       0.65804337       0.00146969 </v>
    <v>       0.22825661       0.46884415       0.20072930 </v>
   </varray>
  </structure>
  <varray name="forces" >
   <v>      -0.05552649       0.14298459       0.01200330 </v>
   <v>      -0.01785766       0.03569720      -0.03461543 </v>
   <v>      -0.22049323       0.04775599       0.13282358 </v>
   <v>       0.01638743      -0.04939214      -0.08286112 </v>
   <v>      -0.08978824      -0.01858730       0.15644550 </v>
   <v>      -0.07922753       0.07212231      -0.15921995 </v>
   <v>       0.07082417      -0.09820964       0.00209756 </v>
   <v>       0.10462247      -0.15406463       0.08209330 </v>
   <v>      -0.00740989      -0.02514544       0.04374498 </v>
   <v>      -0.00481536       0.08098493       0.13331727 </v>
   <v>       0.09021968       0.16565240      -0.28872738 </v>
   <v>       0.02903940       0.09151548      -0.15157829 </v>
   <v>      -0.01242316      -0.05550749      -0.13208769 </v>
   <v>       0.06672948      -0.05837147       0.07617869 </v>
   <v>      -0.03369266      -0.11070742      -0.05016238 </v>
   <v>       0.11425825       0.10037855       0.10550415 </v>
   <v>       0.09858663      -0.13269622      -0.06047678 </v>
   <v>      -0.10238087       0.23412403       0.20192798 </v>
   <v>      -0.01481978      -0.26328942       0.17715297 </v>
   <v>       0.03151466      -0.12913280      -0.05735453 </v>
   <v>      -0.09257542       0.07285961       0.06678132 </v>
   <v>      -0.05218437       0.09464037       0.21163942 </v>
   <v>       0.26965206      -0.10716850      -0.29746134 </v>
   <v>      -0.02537212      -0.06318923      -0.14347233 </v>
   <v>       0.05503072       0.13914103      -0.11930393 </v>
   <v>      -0.08737151       0.05372265       0.07008835 </v>
   <v>      -0.08499717      -0.00545544       0.03154125 </v>
   <v>      -0.06145245       0.08056336       0.05013141 </v>
   <v>       0.09552297      -0.14122536       0.02385015 </v>
  </varray>
  <varray name="stress" >
   <v>      11.33216947      -0.20158028       0.75328805 </v>
   <v>      -0.20158027       9.71287216      -0.64359171 </v>
   <v>       0.75328809      -0.64359164       9.89962492 </v>
  </varray>
  <energy>
   <i name="e_fr_energy">   -331.23710095 </i>
   <i name="e_wo_entrp">   -331.23534631 </i>
   <i name="e_0_energy">     -0.00526389 </i>
  </energy>
  <time name="totalsc">  330.20  330.95</time>
 </calculation>
 <calculation>
  <scstep>
   <time name="dav">   18.21   18.23</time>
   <time name="total">   18.81   18.84</time>
   <energy>
    <i name="alphaZ">   1306.31276756 </i>
    <i name="ewald"> -11525.32822278 </i>
    <i name="hartreedc">  -3022.46600294 </i>
    <i name="XCdc">   -838.28766084 </i>
    <i name="pawpsdc">  21449.59676339 </i>
    <i name="pawaedc"> -19956.57417337 </i>
    <i name="eentropy">     -0.00254039 </i>
    <i name="bandstr">   -738.06289900 </i>
    <i name="atom">  12993.56182891 </i>
    <i name="e_fr_energy">   -331.25013946 </i>
    <i name="e_wo_entrp">   -331.24759907 </i>
    <i name="e_0_energy">   -331.24929266 </i>
   </energy>
  </scstep>
  <scstep>
   <time name="dav">   23.96   23.99</time>
   <time name="total">   24.57   24.60</time>
   <energy>
    <i name="e_fr_energy">   -331.26897180 </i>
    <i name="e_wo_entrp">   -331.26465271 </i>
    <i name="e_0_energy">   -331.26753210 </i>
   </energy>
  </scstep>
  <scstep>
   <time name="dav">   25.20   25.23</time>
   <time name="total">   25.81   25.83</time>
   <energy>
    <i name="e_fr_energy">   -331.26924122 </i>
    <i name="e_wo_entrp">   -331.26670235 </i>
    <i name="e_0_energy">   -331.26839493 </i>
   </energy>
  </scstep>
  <scstep>
   <time name="dav">   25.22   25.24</time>
   <time name="total">   25.82   25.84</time>
   <energy>
    <i name="e_fr_energy">   -331.25907582 </i>
    <i name="e_wo_entrp">   -331.25606787 </i>
    <i name="e_0_energy">   -331.25807317 </i>
   </energy>
  </scstep>
  <scstep>
   <time name="dav">   25.49   25.51</time>
   <time name="total">   26.09   26.12</time>
   <energy>
    <i name="e_fr_energy">   -331.25700302 </i>
    <i name="e_wo_entrp">   -331.25349026 </i>
    <i name="e_0_energy">   -331.25583210 </i>
   </energy>
  </scstep>
  <scstep>
   <time name="dav">   26.09   26.12</time>
   <time name="total">   26.71   26.73</time>
   <energy>
    <i name="e_fr_energy">   -331.25609339 </i>
    <i name="e_wo_entrp">   -331.25268694 </i>
    <i name="e_0_energy">   -331.25495791 </i>
   </energy>
  </scstep>
  <scstep>
   <time name="dav">   25.88   25.91</time>
   <time name="total">   26.48   26.51</time>
   <energy>
    <i name="e_fr_energy">   -331.25589513 </i>
    <i name="e_wo_entrp">   -331.25259030 </i>
    <i name="e_0_energy">   -331.25479352 </i>
   </energy>
  </scstep>
  <scstep>
   <time name="dav">   23.87   23.90</time>
   <time name="total">   24.49   24.52</time>
   <energy>
    <i name="e_fr_energy">   -331.25578374 </i>
    <i name="e_wo_entrp">   -331.25243858 </i>
    <i name="e_0_energy">   -331.25466869 </i>
   </energy>
  </scstep>
  <scstep>
   <time name="dav">   19.92   19.94</time>
   <time name="total">   19.95   19.97</time>
   <energy>
    <i name="alphaZ">   1306.31276756 </i>
    <i name="ewald"> -11525.32822278 </i>
    <i name="hartreedc">  -3029.97877476 </i>
    <i name="XCdc">   -838.04155812 </i>
    <i name="pawpsdc">  21315.97625118 </i>
    <i name="pawaedc"> -19822.73771346 </i>
    <i name="eentropy">     -0.00328998 </i>
    <i name="bandstr">   -731.01705895 </i>
    <i name="atom">  12993.56182891 </i>
    <i name="e_fr_energy">   -331.25577040 </i>
    <i name="e_wo_entrp">   -331.25248041 </i>
    <i name="e_0_energy">   -331.25467373 </i>
   </energy>
  </scstep>
  <structure>
   <crystal>
    <varray name="basis" >
     <v>      -3.19454964      -3.16365738      -3.18414862 </v>
     <v>       1.54907938       1.60498762      -7.93533975 </v>
     <v>       7.97559262      -7.96199288      -1.52844076 </v>
    </varray>
    <i name="volume">    482.43811412 </i>
    <varray name="rec_basis" >
     <v>      -0.13604698      -0.12627808      -0.05209888 </v>
     <v>       0.04252712       0.06276070      -0.10502285 </v>
     <v>       0.06263024      -0.06276937      -0.00046940 </v>
    </varray>
   </crystal>
   <varray name="positions" >
    <v>       0.96656341       0.93532017       0.39542374 </v>
    <v>       0.63160760       0.26695773       0.40053008 </v>
    <v>       0.50052389       0.00252275      -0.00093449 </v>
    <v>      -0.00203903       0.00230070       0.00237628 </v>
    <v>       0.09566414       0.20787842       0.79804954 </v>
    <v>       0.03790633       0.06802874       0.59560576 </v>
    <v>       0.90660023       0.79540975       0.20441415 </v>
    <v>       0.73465477       0.46652198       0.20015546 </v>
    <v>       0.66204922       0.34141039      -0.00162246 </v>
    <v>       0.36749614       0.72630969       0.60081951 </v>
    <v>       0.13186509       0.27713940       0.39803395 </v>
    <v>       0.83500000       0.66176567       0.00409624 </v>
    <v>       0.92732755       0.86999052       0.79920685 </v>
    <v>       0.56666459       0.13356924       0.19835534 </v>
    <v>       0.40592861       0.79097054       0.19755962 </v>
    <v>       0.44193230       0.85645731       0.79492460 </v>
    <v>       0.30045156       0.59942432       0.40224564 </v>
    <v>       0.86071195       0.73290715       0.59840794 </v>
    <v>       0.46355514       0.92887542       0.40528317 </v>
    <v>       0.17033551       0.33527984       0.00284491 </v>
    <v>       0.27125349       0.53461315       0.79730730 </v>
    <v>       0.20512579       0.39206254       0.59780798 </v>
    <v>       0.06372437       0.14024801       0.20589037 </v>
    <v>       0.76992245       0.52688971       0.79856264 </v>
    <v>       0.68843822       0.41058707       0.60335363 </v>
    <v>       0.59536705       0.20357044       0.79739939 </v>
    <v>       0.53819125       0.06734748       0.60130289 </v>
    <v>       0.33588287       0.65643366       0.00168945 </v>
    <v>       0.22729550       0.46920825       0.20091054 </v>
   </varray>
  </structure>
  <varray name="forces" >
   <v>       0.00343366       0.07683018       0.02346208 </v>
   <v>      -0.03964950       0.03806593      -0.03839231 </v>
   <v>      -0.25918789       0.03099788       0.19152211 </v>
   <v>      -0.02203922      -0.04278765      -0.05350685 </v>
   <v>      -0.12891393      -0.10758604       0.27974678 </v>
   <v>      -0.00357098       0.04674172      -0.15362048 </v>
   <v>       0.05274942       0.02877075      -0.02656990 </v>
   <v>       0.11959620      -0.14719857       0.10880802 </v>
   <v>      -0.04834678      -0.11577826       0.15415449 </v>
   <v>       0.03002923       0.15262238       0.04007185 </v>
   <v>       0.08277286       0.10343023      -0.18477945 </v>
   <v>       0.01744492       0.19604642      -0.24227970 </v>
   <v>      -0.04189850      -0.10410828      -0.13262868 </v>
   <v>       0.09226658      -0.09116739       0.07976582 </v>
   <v>       0.04032095      -0.08341551      -0.14837884 </v>
   <v>       0.27782863       0.09381222      -0.01008518 </v>
   <v>       0.08077391      -0.10025053      -0.07193531 </v>
   <v>      -0.11575459       0.21077423       0.17785332 </v>
   <v>      -0.08724973      -0.22874079       0.12863951 </v>
   <v>       0.00838816      -0.08077171      -0.00260475 </v>
   <v>      -0.04515225       0.05992058       0.12735948 </v>
   <v>       0.02609791       0.12706306       0.15581542 </v>
   <v>       0.19354912      -0.07851450      -0.24204103 </v>
   <v>       0.05301801      -0.05275984      -0.26786210 </v>
   <v>      -0.08776673       0.08623203       0.00348551 </v>
   <v>      -0.11588631      -0.01684573       0.10188877 </v>
   <v>      -0.08696004       0.03746064       0.08050514 </v>
   <v>      -0.04002460       0.16757852      -0.09528999 </v>
   <v>       0.04413149      -0.20642196       0.01689625 </v>
  </varray>
  <varray name="stress" >
   <v>       3.21502402       0.31556287      -0.26523647 </v>
   <v>       0.31556286       1.89081638      -0.26421306 </v>
   <v>      -0.26523645      -0.26421307       2.41892013 </v>
  </varray>
  <energy>
   <i name="e_fr_energy">   -331.25577040 </i>
   <i name="e_wo_entrp">   -331.25467373 </i>
   <i name="e_0_energy">     -0.00328998 </i>
  </energy>
  <time name="totalsc">  236.44  236.71</time>
 </calculation>
 <calculation>
  <scstep>
   <time name="dav">   18.75   18.77</time>
   <time name="total">   19.35   19.38</time>
   <energy>
    <i name="alphaZ">   1303.37244311 </i>
    <i name="ewald"> -11514.39518184 </i>
    <i name="hartreedc">  -3029.95843964 </i>
    <i name="XCdc">   -838.32932705 </i>
    <i name="pawpsdc">  21314.64239511 </i>
    <i name="pawaedc"> -19821.53148916 </i>
    <i name="eentropy">     -0.00251371 </i>
    <i name="bandstr">   -738.63725061 </i>
    <i name="atom">  12993.56182891 </i>
    <i name="e_fr_energy">   -331.27753487 </i>
    <i name="e_wo_entrp">   -331.27502116 </i>
    <i name="e_0_energy">   -331.27669697 </i>
   </energy>
  </scstep>
  <scstep>
   <time name="dav">   24.65   24.68</time>
   <time name="total">   25.25   25.28</time>
   <energy>
    <i name="e_fr_energy">   -331.29129253 </i>
    <i name="e_wo_entrp">   -331.28777379 </i>
    <i name="e_0_energy">   -331.29011962 </i>
   </energy>
  </scstep>
  <scstep>
   <time name="dav">   25.57   25.60</time>
   <time name="total">   26.17   26.21</time>
   <energy>
    <i name="e_fr_energy">   -331.28628789 </i>
    <i name="e_wo_entrp">   -331.28373819 </i>
    <i name="e_0_energy">   -331.28543799 </i>
   </energy>
  </scstep>
  <scstep>
   <time name="dav">   24.47   24.49</time>
   <time name="total">   25.08   25.11</time>
   <energy>
    <i name="e_fr_energy">   -331.28481786 </i>
    <i name="e_wo_entrp">   -331.28215037 </i>
    <i name="e_0_energy">   -331.28392870 </i>
   </energy>
  </scstep>
  <scstep>
   <time name="dav">   24.93   24.95</time>
   <time name="total">   25.53   25.56</time>
   <energy>
    <i name="e_fr_energy">   -331.28376911 </i>
    <i name="e_wo_entrp">   -331.28087736 </i>
    <i name="e_0_energy">   -331.28280519 </i>
   </energy>
  </scstep>
  <scstep>
   <time name="dav">   25.51   25.55</time>
   <time name="total">   26.11   26.15</time>
   <energy>
    <i name="e_fr_energy">   -331.28349966 </i>
    <i name="e_wo_entrp">   -331.28068182 </i>
    <i name="e_0_energy">   -331.28256038 </i>
   </energy>
  </scstep>
  <scstep>
   <time name="dav">   23.31   23.37</time>
   <time name="total">   23.92   23.98</time>
   <energy>
    <i name="e_fr_energy">   -331.28338600 </i>
    <i name="e_wo_entrp">   -331.28060789 </i>
    <i name="e_0_energy">   -331.28245996 </i>
   </energy>
  </scstep>
  <scstep>
   <time name="dav">   17.51   17.52</time>
   <time name="total">   17.54   17.56</time>
   <energy>
    <i name="alphaZ">   1303.37244311 </i>
    <i name="ewald"> -11514.39518184 </i>
    <i name="hartreedc">  -3034.16977074 </i>
    <i name="XCdc">   -838.20332906 </i>
    <i name="pawpsdc">  21229.28744773 </i>
    <i name="pawaedc"> -19736.11589373 </i>
    <i name="eentropy">     -0.00282790 </i>
    <i name="bandstr">   -734.61804243 </i>
    <i name="atom">  12993.56182891 </i>
    <i name="e_fr_energy">   -331.28332595 </i>
    <i name="e_wo_entrp">   -331.28049804 </i>
    <i name="e_0_energy">   -331.28238331 </i>
   </energy>
  </scstep>
  <structure>
   <crystal>
    <varray name="basis" >
     <v>      -3.19770243      -3.16544805      -3.18600895 </v>
     <v>       1.55107627       1.60671747      -7.94126167 </v>
     <v>       7.98270798      -7.96583053      -1.52923994 </v>
    </varray>
    <i name="volume">    483.52646349 </i>
    <varray name="rec_basis" >
     <v>      -0.13590942      -0.12619951      -0.05207898 </v>
     <v>       0.04247643       0.06271225      -0.10493987 </v>
     <v>       0.06257500      -0.06273811      -0.00047144 </v>
    </varray>
   </crystal>
   <varray name="positions" >
    <v>       0.96625320       0.93539796       0.39527515 </v>
    <v>       0.63166939       0.26708798       0.40040090 </v>
    <v>       0.50110439       0.00174497      -0.00143404 </v>
    <v>      -0.00174543       0.00236744       0.00242408 </v>
    <v>       0.09609047       0.20679156       0.79800022 </v>
    <v>       0.03800010       0.06854794       0.59549984 </v>
    <v>       0.90637809       0.79557087       0.20447889 </v>
    <v>       0.73457177       0.46609899       0.20060936 </v>
    <v>       0.66238174       0.34076088      -0.00151753 </v>
    <v>       0.36681265       0.72645278       0.60061419 </v>
    <v>       0.13145738       0.27799145       0.39799107 </v>
    <v>       0.83461680       0.66278293       0.00381627 </v>
    <v>       0.92799701       0.87015861       0.79931051 </v>
    <v>       0.56652321       0.13329453       0.19865785 </v>
    <v>       0.40630591       0.79125163       0.19776021 </v>
    <v>       0.44064353       0.85691368       0.79521090 </v>
[...]
       <r>    4.5712    1.0000 </r>
       <r>    4.6694    1.0000 </r>
       <r>    4.7273    1.0000 </r>
       <r>    4.7491    1.0000 </r>
       <r>    4.8167    1.0000 </r>
       <r>    4.8853    1.0000 </r>
       <r>    4.9119    1.0000 </r>
       <r>    4.9718    1.0000 </r>
       <r>    5.0216    1.0000 </r>
       <r>    5.0596    1.0000 </r>
       <r>    5.1363    1.0000 </r>
       <r>    5.2245    1.0000 </r>
       <r>    5.2584    1.0000 </r>
       <r>    5.3090    1.0000 </r>
       <r>    5.3519    1.0000 </r>
       <r>    5.3630    1.0000 </r>
       <r>    5.4505    1.0000 </r>
       <r>    5.5341    1.0000 </r>
       <r>    5.5773    1.0000 </r>
       <r>    5.6677    1.0000 </r>
       <r>    5.6990    1.0000 </r>
       <r>    5.7575    1.0000 </r>
       <r>    5.8275    1.0000 </r>
       <r>    5.8600    1.0000 </r>
       <r>    5.9192    1.0000 </r>
       <r>    5.9732    1.0000 </r>
       <r>    6.0081    1.0000 </r>
       <r>    6.0852    1.0000 </r>
       <r>    6.1087    1.0001 </r>
       <r>    6.1870    1.0006 </r>
       <r>    6.2496    1.0025 </r>
       <r>    6.2675    1.0035 </r>
       <r>    6.3169    1.0084 </r>
       <r>    6.3577    1.0152 </r>
       <r>    6.4301    1.0311 </r>
       <r>    6.4828    1.0346 </r>
       <r>    6.5230    1.0196 </r>
       <r>    6.5955    0.9159 </r>
       <r>    6.6488    0.7589 </r>
       <r>    6.7588    0.3140 </r>
       <r>    6.8026    0.1618 </r>
       <r>    6.8642    0.0230 </r>
       <r>    6.9739   -0.0346 </r>
       <r>    7.1098   -0.0085 </r>
       <r>    7.1828   -0.0022 </r>
       <r>    7.2414   -0.0006 </r>
       <r>    7.3057   -0.0001 </r>
       <r>    7.5194   -0.0000 </r>
       <r>    7.6814   -0.0000 </r>
       <r>    7.8188   -0.0000 </r>
       <r>    7.9044   -0.0000 </r>
       <r>    8.0129   -0.0000 </r>
       <r>    8.0885   -0.0000 </r>
       <r>    8.2622   -0.0000 </r>
       <r>    8.5984   -0.0000 </r>
       <r>    8.6267   -0.0000 </r>
       <r>    8.8154   -0.0000 </r>
       <r>    8.8881   -0.0000 </r>
       <r>    8.9284   -0.0000 </r>
       <r>    8.9903   -0.0000 </r>
       <r>    9.0792   -0.0000 </r>
      </set>
     </set>
    </set>
   </array>
  </eigenvalues>
  <separator name="orbital magnetization" >
   <v name="MAGDIPOLOUT">      0.00000000      0.00000000      0.00000000</v>
  </separator>
  <dos>
   <i name="efermi">      6.71363983 </i>
   <total>
    <array>
     <dimension dim="1">gridpoints</dimension>
     <dimension dim="2">spin</dimension>
     <field>energy</field>
     <field>total</field>
     <field>integrated</field>
     <set>
      <set comment="spin 1">
       <r>   -50.1859     0.0000     0.0000 </r>
       <r>   -49.9782     0.0000     0.0000 </r>
       <r>   -49.7706     0.0000     0.0000 </r>
       <r>   -49.5630     0.0000     0.0000 </r>
       <r>   -49.3553     0.0000     0.0000 </r>
       <r>   -49.1477    -0.0000    -0.0000 </r>
       <r>   -48.9400    -0.0000    -0.0000 </r>
       <r>   -48.7324    -0.0000    -0.0000 </r>
       <r>   -48.5247    -0.0000    -0.0000 </r>
       <r>   -48.3171    -0.0000    -0.0000 </r>
       <r>   -48.1095    -0.0000    -0.0000 </r>
       <r>   -47.9018    -0.0051    -0.0011 </r>
       <r>   -47.6942    -0.3355    -0.0707 </r>
       <r>   -47.4865     0.0340    -0.0637 </r>
       <r>   -47.2789    19.7985     4.0473 </r>
       <r>   -47.0712    30.1729    10.3125 </r>
       <r>   -46.8636     9.0489    12.1915 </r>
       <r>   -46.6560    -0.8231    12.0205 </r>
       <r>   -46.4483    -0.0983    12.0001 </r>
       <r>   -46.2407    -0.0007    12.0000 </r>
       <r>   -46.0330    -0.0000    12.0000 </r>
       <r>   -45.8254    -0.0000    12.0000 </r>
       <r>   -45.6177     0.0000    12.0000 </r>
       <r>   -45.4101     0.0000    12.0000 </r>
       <r>   -45.2025     0.0000    12.0000 </r>
       <r>   -44.9948     0.0000    12.0000 </r>
       <r>   -44.7872     0.0000    12.0000 </r>
       <r>   -44.5795     0.0000    12.0000 </r>
       <r>   -44.3719     0.0000    12.0000 </r>
       <r>   -44.1642     0.0000    12.0000 </r>
       <r>   -43.9566     0.0000    12.0000 </r>
       <r>   -43.7490     0.0000    12.0000 </r>
       <r>   -43.5413     0.0000    12.0000 </r>
       <r>   -43.3337     0.0000    12.0000 </r>
       <r>   -43.1260     0.0000    12.0000 </r>
       <r>   -42.9184     0.0000    12.0000 </r>
       <r>   -42.7107     0.0000    12.0000 </r>
       <r>   -42.5031     0.0000    12.0000 </r>
       <r>   -42.2955     0.0000    12.0000 </r>
       <r>   -42.0878     0.0000    12.0000 </r>
       <r>   -41.8802     0.0000    12.0000 </r>
       <r>   -41.6725     0.0000    12.0000 </r>
       <r>   -41.4649     0.0000    12.0000 </r>
       <r>   -41.2572     0.0000    12.0000 </r>
       <r>   -41.0496     0.0000    12.0000 </r>
       <r>   -40.8420     0.0000    12.0000 </r>
       <r>   -40.6343     0.0000    12.0000 </r>
       <r>   -40.4267     0.0000    12.0000 </r>
       <r>   -40.2190     0.0000    12.0000 </r>
       <r>   -40.0114     0.0000    12.0000 </r>
       <r>   -39.8037     0.0000    12.0000 </r>
       <r>   -39.5961     0.0000    12.0000 </r>
       <r>   -39.3885     0.0000    12.0000 </r>
       <r>   -39.1808     0.0000    12.0000 </r>
       <r>   -38.9732     0.0000    12.0000 </r>
       <r>   -38.7655     0.0000    12.0000 </r>
       <r>   -38.5579     0.0000    12.0000 </r>
       <r>   -38.3502     0.0000    12.0000 </r>
       <r>   -38.1426     0.0000    12.0000 </r>
       <r>   -37.9350     0.0000    12.0000 </r>
       <r>   -37.7273     0.0000    12.0000 </r>
       <r>   -37.5197     0.0000    12.0000 </r>
       <r>   -37.3120     0.0000    12.0000 </r>
       <r>   -37.1044     0.0000    12.0000 </r>
       <r>   -36.8967     0.0000    12.0000 </r>
       <r>   -36.6891     0.0000    12.0000 </r>
       <r>   -36.4815     0.0000    12.0000 </r>
       <r>   -36.2738     0.0000    12.0000 </r>
       <r>   -36.0662     0.0000    12.0000 </r>
       <r>   -35.8585     0.0000    12.0000 </r>
       <r>   -35.6509     0.0000    12.0000 </r>
       <r>   -35.4432     0.0000    12.0000 </r>
       <r>   -35.2356     0.0000    12.0000 </r>
       <r>   -35.0280     0.0000    12.0000 </r>
       <r>   -34.8203     0.0000    12.0000 </r>
       <r>   -34.6127     0.0000    12.0000 </r>
       <r>   -34.4050     0.0000    12.0000 </r>
       <r>   -34.1974     0.0000    12.0000 </r>
       <r>   -33.9897     0.0000    12.0000 </r>
       <r>   -33.7821     0.0000    12.0000 </r>
       <r>   -33.5745     0.0000    12.0000 </r>
       <r>   -33.3668     0.0000    12.0000 </r>
       <r>   -33.1592     0.0000    12.0000 </r>
       <r>   -32.9515     0.0000    12.0000 </r>
       <r>   -32.7439     0.0000    12.0000 </r>
       <r>   -32.5362     0.0000    12.0000 </r>
       <r>   -32.3286     0.0000    12.0000 </r>
       <r>   -32.1210     0.0000    12.0000 </r>
       <r>   -31.9133     0.0000    12.0000 </r>
       <r>   -31.7057     0.0000    12.0000 </r>
       <r>   -31.4980     0.0000    12.0000 </r>
       <r>   -31.2904     0.0000    12.0000 </r>
       <r>   -31.0827     0.0000    12.0000 </r>
       <r>   -30.8751     0.0000    12.0000 </r>
       <r>   -30.6675     0.0000    12.0000 </r>
       <r>   -30.4598     0.0000    12.0000 </r>
       <r>   -30.2522     0.0000    12.0000 </r>
       <r>   -30.0445     0.0000    12.0000 </r>
       <r>   -29.8369     0.0000    12.0000 </r>
       <r>   -29.6292     0.0000    12.0000 </r>
       <r>   -29.4216     0.0000    12.0000 </r>
       <r>   -29.2140     0.0000    12.0000 </r>
       <r>   -29.0063     0.0000    12.0000 </r>
       <r>   -28.7987     0.0000    12.0000 </r>
       <r>   -28.5910     0.0000    12.0000 </r>
       <r>   -28.3834     0.0000    12.0000 </r>
       <r>   -28.1757     0.0000    12.0000 </r>
       <r>   -27.9681     0.0000    12.0000 </r>
       <r>   -27.7605     0.0000    12.0000 </r>
       <r>   -27.5528     0.0000    12.0000 </r>
       <r>   -27.3452     0.0000    12.0000 </r>
       <r>   -27.1375     0.0000    12.0000 </r>
       <r>   -26.9299     0.0000    12.0000 </r>
       <r>   -26.7222     0.0000    12.0000 </r>
       <r>   -26.5146     0.0000    12.0000 </r>
       <r>   -26.3070     0.0000    12.0000 </r>
       <r>   -26.0993     0.0000    12.0000 </r>
       <r>   -25.8917     0.0000    12.0000 </r>
       <r>   -25.6840    -0.0000    12.0000 </r>
       <r>   -25.4764    -0.0000    12.0000 </r>
       <r>   -25.2687    -0.0000    12.0000 </r>
       <r>   -25.0611    -0.0000    12.0000 </r>
       <r>   -24.8535    -0.0000    12.0000 </r>
       <r>   -24.6458    -0.0002    12.0000 </r>
       <r>   -24.4382    -0.0277    11.9942 </r>
       <r>   -24.2305    -0.3519    11.9211 </r>
       <r>   -24.0229     2.6899    12.4797 </r>
       <r>   -23.8152    12.2108    15.0152 </r>
       <r>   -23.6076    21.7703    19.5356 </r>
       <r>   -23.4000    47.5284    29.4045 </r>
       <r>   -23.1923    52.0076    40.2035 </r>
       <r>   -22.9847    24.8113    45.3554 </r>
       <r>   -22.7770    11.4382    47.7305 </r>
       <r>   -22.5694     1.5447    48.0512 </r>
       <r>   -22.3617    -0.2215    48.0052 </r>
       <r>   -22.1541    -0.0250    48.0001 </r>
       <r>   -21.9465    -0.0002    48.0000 </r>
       <r>   -21.7388    -0.0000    48.0000 </r>
       <r>   -21.5312    -0.0000    48.0000 </r>
       <r>   -21.3235    -0.0000    48.0000 </r>
       <r>   -21.1159     0.0000    48.0000 </r>
       <r>   -20.9082     0.0000    48.0000 </r>
       <r>   -20.7006     0.0000    48.0000 </r>
       <r>   -20.4930     0.0000    48.0000 </r>
       <r>   -20.2853     0.0000    48.0000 </r>
       <r>   -20.0777     0.0000    48.0000 </r>
       <r>   -19.8700     0.0000    48.0000 </r>
       <r>   -19.6624     0.0000    48.0000 </r>
       <r>   -19.4547     0.0000    48.0000 </r>
       <r>   -19.2471     0.0000    48.0000 </r>
       <r>   -19.0395     0.0000    48.0000 </r>
       <r>   -18.8318     0.0000    48.0000 </r>
       <r>   -18.6242     0.0000    48.0000 </r>
       <r>   -18.4165     0.0000    48.0000 </r>
       <r>   -18.2089     0.0000    48.0000 </r>
       <r>   -18.0012     0.0000    48.0000 </r>
       <r>   -17.7936     0.0000    48.0000 </r>
       <r>   -17.5860     0.0000    48.0000 </r>
       <r>   -17.3783     0.0000    48.0000 </r>
       <r>   -17.1707     0.0000    48.0000 </r>
       <r>   -16.9630     0.0000    48.0000 </r>
       <r>   -16.7554     0.0000    48.0000 </r>
       <r>   -16.5478     0.0000    48.0000 </r>
       <r>   -16.3401     0.0000    48.0000 </r>
       <r>   -16.1325     0.0000    48.0000 </r>
       <r>   -15.9248     0.0000    48.0000 </r>
       <r>   -15.7172     0.0000    48.0000 </r>
       <r>   -15.5095     0.0000    48.0000 </r>
       <r>   -15.3019     0.0000    48.0000 </r>
       <r>   -15.0943     0.0000    48.0000 </r>
       <r>   -14.8866     0.0000    48.0000 </r>
       <r>   -14.6790     0.0000    48.0000 </r>
       <r>   -14.4713     0.0000    48.0000 </r>
       <r>   -14.2637     0.0000    48.0000 </r>
       <r>   -14.0560     0.0000    48.0000 </r>
       <r>   -13.8484     0.0000    48.0000 </r>
       <r>   -13.6408     0.0000    48.0000 </r>
       <r>   -13.4331     0.0000    48.0000 </r>
       <r>   -13.2255     0.0000    48.0000 </r>
       <r>   -13.0178     0.0000    48.0000 </r>
       <r>   -12.8102     0.0000    48.0000 </r>
       <r>   -12.6025     0.0000    48.0000 </r>
       <r>   -12.3949     0.0000    48.0000 </r>
       <r>   -12.1873     0.0000    48.0000 </r>
       <r>   -11.9796     0.0000    48.0000 </r>
       <r>   -11.7720     0.0000    48.0000 </r>
       <r>   -11.5643     0.0000    48.0000 </r>
       <r>   -11.3567     0.0000    48.0000 </r>
       <r>   -11.1490     0.0000    48.0000 </r>
       <r>   -10.9414     0.0000    48.0000 </r>
       <r>   -10.7338     0.0000    48.0000 </r>
       <r>   -10.5261     0.0000    48.0000 </r>
       <r>   -10.3185     0.0000    48.0000 </r>
       <r>   -10.1108     0.0000    48.0000 </r>
       <r>    -9.9032     0.0000    48.0000 </r>
       <r>    -9.6955     0.0000    48.0000 </r>
       <r>    -9.4879     0.0000    48.0000 </r>
       <r>    -9.2803     0.0000    48.0000 </r>
       <r>    -9.0726     0.0000    48.0000 </r>
       <r>    -8.8650     0.0000    48.0000 </r>
       <r>    -8.6573     0.0000    48.0000 </r>
       <r>    -8.4497     0.0000    48.0000 </r>
       <r>    -8.2420     0.0000    48.0000 </r>
       <r>    -8.0344     0.0000    48.0000 </r>
       <r>    -7.8268     0.0000    48.0000 </r>
       <r>    -7.6191     0.0000    48.0000 </r>
       <r>    -7.4115     0.0000    48.0000 </r>
       <r>    -7.2038     0.0000    48.0000 </r>
       <r>    -6.9962     0.0000    48.0000 </r>
       <r>    -6.7885     0.0000    48.0000 </r>
       <r>    -6.5809     0.0000    48.0000 </r>
       <r>    -6.3733     0.0000    48.0000 </r>
       <r>    -6.1656     0.0000    48.0000 </r>
       <r>    -5.9580     0.0000    48.0000 </r>
       <r>    -5.7503     0.0000    48.0000 </r>
       <r>    -5.5427     0.0000    48.0000 </r>
       <r>    -5.3350     0.0000    48.0000 </r>
       <r>    -5.1274     0.0000    48.0000 </r>
       <r>    -4.9198     0.0000    48.0000 </r>
       <r>    -4.7121     0.0000    48.0000 </r>
       <r>    -4.5045     0.0000    48.0000 </r>
       <r>    -4.2968     0.0000    48.0000 </r>
       <r>    -4.0892     0.0000    48.0000 </r>
       <r>    -3.8815     0.0000    48.0000 </r>
       <r>    -3.6739     0.0000    48.0000 </r>
       <r>    -3.4663     0.0000    48.0000 </r>
       <r>    -3.2586     0.0000    48.0000 </r>
       <r>    -3.0510     0.0000    48.0000 </r>
       <r>    -2.8433     0.0000    48.0000 </r>
       <r>    -2.6357     0.0000    48.0000 </r>
       <r>    -2.4280    -0.0000    48.0000 </r>
       <r>    -2.2204    -0.0000    48.0000 </r>
       <r>    -2.0128    -0.0000    48.0000 </r>
       <r>    -1.8051    -0.0000    48.0000 </r>
       <r>    -1.5975    -0.0000    48.0000 </r>
       <r>    -1.3898    -0.0000    48.0000 </r>
       <r>    -1.1822    -0.0001    48.0000 </r>
       <r>    -0.9745    -0.0036    47.9992 </r>
       <r>    -0.7669    -0.0117    47.9968 </r>
       <r>    -0.5593     0.2174    48.0420 </r>
       <r>    -0.3516     0.8620    48.2210 </r>
       <r>    -0.1440     1.4747    48.5272 </r>
       <r>     0.0637     1.8291    48.9070 </r>
       <r>     0.2713     1.1435    49.1444 </r>
       <r>     0.4790     2.1591    49.5927 </r>
       <r>     0.6866     3.4843    50.3162 </r>
       <r>     0.8942     2.9258    50.9238 </r>
       <r>     1.1019     2.5921    51.4620 </r>
       <r>     1.3095     3.8858    52.2688 </r>
       <r>     1.5172     4.4000    53.1825 </r>
       <r>     1.7248     3.6467    53.9397 </r>
       <r>     1.9325     5.7744    55.1387 </r>
       <r>     2.1401     8.7533    56.9562 </r>
       <r>     2.3477    11.5765    59.3600 </r>
       <r>     2.5554    16.2344    62.7310 </r>
       <r>     2.7630    17.8682    66.4412 </r>
       <r>     2.9707    23.6270    71.3471 </r>
       <r>     3.1783    27.9197    77.1445 </r>
       <r>     3.3860    28.7301    83.1101 </r>
       <r>     3.5936    28.1730    88.9600 </r>
       <r>     3.8012    30.1399    95.2183 </r>
       <r>     4.0089    29.6927   101.3838 </r>
       <r>     4.2165    27.5341   107.1011 </r>
       <r>     4.4242    23.7895   112.0408 </r>
       <r>     4.6318    27.3911   117.7283 </r>
       <r>     4.8395    38.2336   125.6673 </r>
       <r>     5.0471    42.3029   134.4512 </r>
       <r>     5.2547    40.4673   142.8539 </r>
       <r>     5.4624    37.3347   150.6062 </r>
       <r>     5.6700    35.9656   158.0742 </r>
       <r>     5.8777    36.9003   165.7363 </r>
       <r>     6.0853    39.2719   173.8908 </r>
       <r>     6.2930    39.7477   182.1441 </r>
       <r>     6.5006    39.8014   190.4086 </r>
       <r>     6.7082    35.7033   197.8221 </r>
       <r>     6.9159    30.9443   204.2475 </r>
       <r>     7.1235    23.7448   209.1779 </r>
       <r>     7.3312    17.6373   212.8402 </r>
       <r>     7.5388    16.2451   216.2134 </r>
       <r>     7.7465    14.8834   219.3038 </r>
       <r>     7.9541    16.3991   222.7090 </r>
       <r>     8.1617    18.1177   226.4710 </r>
       <r>     8.3694    20.4493   230.7171 </r>
       <r>     8.5770    19.3743   234.7401 </r>
       <r>     8.7847    13.5804   237.5600 </r>
       <r>     8.9923     7.8362   239.1871 </r>
       <r>     9.2000     3.4708   239.9078 </r>
       <r>     9.4076     0.5204   240.0158 </r>
       <r>     9.6152    -0.0679   240.0017 </r>
       <r>     9.8229    -0.0082   240.0000 </r>
       <r>    10.0305    -0.0001   240.0000 </r>
       <r>    10.2382    -0.0000   240.0000 </r>
       <r>    10.4458    -0.0000   240.0000 </r>
       <r>    10.6535    -0.0000   240.0000 </r>
       <r>    10.8611     0.0000   240.0000 </r>
       <r>    11.0687     0.0000   240.0000 </r>
       <r>    11.2764     0.0000   240.0000 </r>
       <r>    11.4840     0.0000   240.0000 </r>
       <r>    11.6917     0.0000   240.0000 </r>
       <r>    11.8993     0.0000   240.0000 </r>
       <r>    12.1070     0.0000   240.0000 </r>
      </set>
     </set>
    </array>
   </total>
  </dos>
 </calculation>
 <structure name="finalpos" >
  <crystal>
   <varray name="basis" >
    <v>      -3.19916283      -3.15880079      -3.18660012 </v>
    <v>       1.53794825       1.60632677      -7.93179280 </v>
    <v>       7.98401879      -7.96269355      -1.51368965 </v>
   </varray>
   <i name="volume">    482.41016626 </i>
   <varray name="rec_basis" >
    <v>      -0.13596296      -0.12644760      -0.05197062 </v>
    <v>       0.04268665       0.06277731      -0.10508460 </v>
    <v>       0.06254776      -0.06275971      -0.00058214 </v>
   </varray>
  </crystal>
  <varray name="positions" >
   <v>       0.96750944       0.93729111       0.39455394 </v>
   <v>       0.62989737       0.26822417       0.40093946 </v>
   <v>       0.50517146       0.00055237      -0.00258546 </v>
   <v>       0.00056936       0.00341403       0.00329377 </v>
   <v>       0.09581936       0.20358526       0.79803821 </v>
   <v>       0.03695596       0.06945555       0.59449574 </v>
   <v>       0.90786376       0.79673615       0.20444192 </v>
   <v>       0.73438859       0.46767878       0.20206747 </v>
   <v>       0.66420879       0.33982233      -0.00075099 </v>
   <v>       0.36126401       0.72636382       0.60087142 </v>
   <v>       0.12822363       0.28285584       0.39950926 </v>
   <v>       0.83605435       0.66401547       0.00279927 </v>
   <v>       0.92693489       0.86963249       0.79744325 </v>
   <v>       0.56762996       0.13240167       0.20028900 </v>
   <v>       0.40846301       0.79298409       0.19757731 </v>
   <v>       0.43779728       0.85710719       0.79514766 </v>
   <v>       0.30049604       0.60119589       0.40342903 </v>
   <v>       0.85338624       0.72932733       0.59294481 </v>
   <v>       0.47485465       0.91934674       0.40699854 </v>
   <v>       0.17259033       0.33476706       0.00388200 </v>
   <v>       0.27115081       0.53177638       0.79693955 </v>
   <v>       0.19991554       0.39072593       0.59719752 </v>
   <v>       0.06204632       0.14750420       0.20948688 </v>
   <v>       0.77022551       0.52782545       0.79877002 </v>
   <v>       0.68582634       0.41074649       0.60259336 </v>
   <v>       0.59628179       0.20107859       0.79667744 </v>
   <v>       0.53765575       0.06532972       0.60023432 </v>
   <v>       0.33685396       0.65784134       0.00059988 </v>
   <v>       0.22996552       0.47041459       0.20211545 </v>
  </varray>
 </structure>
</modeling>
