SQS with 1 vacancy for VFE and VRV      
           1
    -3.190000   -3.190000   -3.190000
     1.595000    1.595000   -7.975000
     7.975000   -7.975000   -1.595000
   Nb   Mo   Ta   Ti   W 
   6   5   6   6   6
Direct configuration=     1
   0.96666667  0.93333333  0.40000000
   0.63333333  0.26666667  0.40000000
   0.50000000  0.00000000  0.00000000
   0.00000000  0.00000000  0.00000000
   0.10000000  0.20000000  0.80000000
   0.03333333  0.06666667  0.60000000
   0.90000000  0.80000000  0.20000000
   0.73333333  0.46666667  0.20000000
   0.66666667  0.33333333  0.00000000
   0.36666667  0.73333333  0.60000000
   0.13333333  0.26666667  0.40000000
   0.83333333  0.66666667  0.00000000
   0.93333333  0.86666667  0.80000000
   0.56666667  0.13333333  0.20000000
   0.40000000  0.80000000  0.20000000
   0.43333333  0.86666667  0.80000000
   0.30000000  0.60000000  0.40000000
   0.86666667  0.73333333  0.60000000
   0.46666667  0.93333333  0.40000000
   0.16666667  0.33333333  0.00000000
   0.26666667  0.53333333  0.80000000
   0.20000000  0.40000000  0.60000000
   0.06666667  0.13333333  0.20000000
   0.76666667  0.53333333  0.80000000
   0.70000000  0.40000000  0.60000000
   0.60000000  0.20000000  0.80000000
   0.53333333  0.06666667  0.60000000
   0.33333333  0.66666667  0.00000000
   0.23333333  0.46666667  0.20000000
SQS with 1 vacancy for VFE and VRV      
           1
    -3.164281   -3.148387   -3.159176
     1.556562    1.586313   -7.884482
     7.905386   -7.899310   -1.545930
   Nb   Mo   Ta   Ti   W 
   6   5   6   6   6
Direct configuration=     2
   0.96685534  0.93436892  0.39766585
   0.63233527  0.26670855  0.40037247
   0.50022659  0.00156420 -0.00033804
  -0.00129161  0.00107094  0.00128584
   0.09754727  0.20447034  0.79900211
   0.03564776  0.06722433  0.59772033
   0.90362948  0.79763835  0.20211386
   0.73391107  0.46675932  0.19975332
   0.66419837  0.33774670 -0.00092412
   0.36711501  0.72974399  0.60054717
   0.13297526  0.27166573  0.39896253
   0.83417102  0.66381767  0.00226521
   0.92961899  0.86849331  0.79953837
   0.56679548  0.13358195  0.19898735
   0.40287667  0.79508619  0.19851743
   0.43856699  0.86109220  0.79720300
   0.30017487  0.59973116  0.40098072
   0.86367152  0.73333171  0.59948630
   0.46453624  0.93147942  0.40270867
   0.16850226  0.33441329  0.00141805
   0.26917876  0.53410765  0.79870205
   0.20308377  0.39578113  0.59893841
   0.06515658  0.13668457  0.20295224
   0.76809959  0.52979673  0.79923750
   0.69390543  0.40523344  0.60202861
   0.59764619  0.20191156  0.79863222
   0.53591093  0.06709056  0.60083609
   0.33477979  0.66122364  0.00109476
   0.23017509  0.46818247  0.20031169
SQS with 1 vacancy for VFE and VRV      
           1
    -3.169170   -3.156297   -3.165035
     1.563869    1.587965   -7.901688
     7.918619   -7.913697   -1.555258
   Nb   Mo   Ta   Ti   W 
   6   5   6   6   6
Direct configuration=     3
   0.96682059  0.93417126  0.39811321
   0.63252679  0.26670017  0.40030120
   0.50018372  0.00126361 -0.00027380
  -0.00104385  0.00086404  0.00103904
   0.09802023  0.20361103  0.79919239
   0.03520455  0.06711874  0.59815700
   0.90293059  0.79809151  0.20170851
   0.73380026  0.46674171  0.19980050
   0.66467427  0.33689829 -0.00074796
   0.36702752  0.73043398  0.60044341
   0.13304608  0.27070495  0.39915982
   0.83400811  0.66436421  0.00183153
   0.93033319  0.86814198  0.79962699
   0.56677133  0.13353480  0.19918149
   0.40232340  0.79603241  0.19880306
   0.43756147  0.86216653  0.79774056
   0.30014071  0.59978225  0.40079265
   0.86424705  0.73333208  0.59958543
   0.46494350  0.93183404  0.40219014
   0.16814932  0.33420485  0.00114528
   0.26869716  0.53395979  0.79895028
   0.20249072  0.39659345  0.59914299
   0.06544617  0.13603804  0.20238498
   0.76782367  0.53047750  0.79938478
   0.69507658  0.40422511  0.60163874
   0.59809955  0.20154459  0.79889437
   0.53541557  0.06700873  0.60067505
   0.33449976  0.66226986  0.00088644
   0.23078200  0.46789047  0.20025196
SQS with 1 vacancy for VFE and VRV      
           1
    -3.187533   -3.161623   -3.178865
     1.553168    1.600282   -7.926037
     7.959843   -7.948642   -1.535854
   Nb   Mo   Ta   Ti   W 
   6   5   6   6   6
Direct configuration=     4
   0.96663577  0.93500455  0.39616436
   0.63186094  0.26688650  0.40046710
   0.50043070  0.00217575 -0.00075290
  -0.00176495  0.00190364  0.00200763
   0.09631514  0.20670160  0.79836353
   0.03716290  0.06777916  0.59630789
   0.90558681  0.79614846  0.20366896
   0.73441900  0.46658248  0.20005760
   0.66277430  0.34016591 -0.00138242
   0.36736582  0.72744729  0.60071701
   0.13219266  0.27536483  0.39834245
   0.83472496  0.66248146  0.00347293
   0.92815672  0.86948057  0.79932255
   0.56669439  0.13356014  0.19858294
   0.40493415  0.79236781  0.19790304
   0.44072733  0.85803399  0.79570130
   0.30036514  0.59952236  0.40184541
   0.86168687  0.73302472  0.59873302
   0.46393579  0.92968997  0.40443216
   0.16973235  0.33498259  0.00237602
   0.27054969  0.53443390  0.79775931
   0.20439893  0.39331331  0.59817663
   0.06419844  0.13908475  0.20492375
   0.76934341  0.52788001  0.79878982
   0.69026891  0.40883071  0.60288045
   0.59612144  0.20301213  0.79781110
   0.53742590  0.06725391  0.60112938
   0.33549987  0.65804337  0.00146969
   0.22825661  0.46884415  0.20072930
SQS with 1 vacancy for VFE and VRV      
           1
    -3.194550   -3.163657   -3.184149
     1.549079    1.604988   -7.935340
     7.975593   -7.961993   -1.528441
   Nb   Mo   Ta   Ti   W 
   6   5   6   6   6
Direct configuration=     5
   0.96656341  0.93532017  0.39542374
   0.63160760  0.26695773  0.40053008
   0.50052389  0.00252275 -0.00093449
  -0.00203903  0.00230070  0.00237628
   0.09566414  0.20787842  0.79804954
   0.03790633  0.06802874  0.59560576
   0.90660023  0.79540975  0.20441415
   0.73465477  0.46652198  0.20015546
   0.66204922  0.34141039 -0.00162246
   0.36749614  0.72630969  0.60081951
   0.13186509  0.27713940  0.39803395
   0.83500000  0.66176567  0.00409624
   0.92732755  0.86999052  0.79920685
   0.56666459  0.13356924  0.19835534
   0.40592861  0.79097054  0.19755962
   0.44193230  0.85645731  0.79492460
   0.30045156  0.59942432  0.40224564
   0.86071195  0.73290715  0.59840794
   0.46355514  0.92887542  0.40528317
   0.17033551  0.33527984  0.00284491
   0.27125349  0.53461315  0.79730730
   0.20512579  0.39206254  0.59780798
   0.06372437  0.14024801  0.20589037
   0.76992245  0.52688971  0.79856264
   0.68843822  0.41058707  0.60335363
   0.59536705  0.20357044  0.79739939
   0.53819125  0.06734748  0.60130289
   0.33588287  0.65643366  0.00168945
   0.22729550  0.46920825  0.20091054
SQS with 1 vacancy for VFE and VRV      
           1
    -3.197702   -3.165448   -3.186009
     1.551076    1.606717   -7.941262
     7.982708   -7.965831   -1.529240
   Nb   Mo   Ta   Ti   W 
   6   5   6   6   6
Direct configuration=     6
   0.96625320  0.93539796  0.39527515
   0.63166939  0.26708798  0.40040090
   0.50110439  0.00174497 -0.00143404
  -0.00174543  0.00236744  0.00242408
   0.09609047  0.20679156  0.79800022
   0.03800010  0.06854794  0.59549984
   0.90637809  0.79557087  0.20447889
   0.73457177  0.46609899  0.20060936
   0.66238174  0.34076088 -0.00151753
   0.36681265  0.72645278  0.60061419
   0.13145738  0.27799145  0.39799107
   0.83461680  0.66278293  0.00381627
   0.92799701  0.87015861  0.79931051
   0.56652321  0.13329453  0.19865785
   0.40630591  0.79125163  0.19776021
   0.44064353  0.85691368  0.79521090
   0.30060078  0.59954815  0.40256618
   0.86013649  0.73262303  0.59784174
   0.46446326  0.92799589  0.40554920
   0.17060337  0.33516944  0.00301123
   0.27105827  0.53430714  0.79711310
   0.20440016  0.39182560  0.59762278
   0.06360626  0.14106169  0.20638530
   0.77030333  0.52758961  0.79873797
   0.68840291  0.41067902  0.60307395
   0.59568292  0.20313741  0.79721730
   0.53829437  0.06708559  0.60109671
   0.33560463  0.65689064  0.00134567
   0.22778305  0.46887259  0.20134101
SQS with 1 vacancy for VFE and VRV      
           1
    -3.201509   -3.167610   -3.188255
     1.553488    1.608806   -7.948412
     7.991300   -7.970464   -1.530205
   Nb   Mo   Ta   Ti   W 
   6   5   6   6   6
Direct configuration=     7
   0.96587884  0.93549182  0.39509581
   0.63174391  0.26724517  0.40024503
   0.50180439  0.00080670 -0.00203676
  -0.00139114  0.00244796  0.00248179
   0.09660462  0.20548029  0.79794079
   0.03811329  0.06917438  0.59537202
   0.90611012  0.79576524  0.20455699
   0.73447177  0.46558856  0.20115707
   0.66278287  0.33997725 -0.00139088
   0.36598787  0.72662543  0.60036637
   0.13096561  0.27901944  0.39793925
   0.83415449  0.66401030  0.00347838
   0.92880485  0.87036144  0.79943565
   0.56635271  0.13296303  0.19902287
   0.40676133  0.79159076  0.19800230
   0.43908876  0.85746417  0.79555622
   0.30078102  0.59969751  0.40295299
   0.85944178  0.73228029  0.59715848
   0.46555894  0.92693474  0.40587032
   0.17092664  0.33503622  0.00321195
   0.27082256  0.53393796  0.79687876
   0.20352447  0.39153971  0.59739923
   0.06346420  0.14204331  0.20698247
   0.77076315  0.52843404  0.79894956
   0.68836018  0.41079001  0.60273647
   0.59606385  0.20261501  0.79699763
   0.53841863  0.06676964  0.60084793
   0.33526882  0.65744205  0.00093079
   0.22837148  0.46846758  0.20186051
SQS with 1 vacancy for VFE and VRV      
           1
    -3.197553   -3.161834   -3.183158
     1.551043    1.606591   -7.935891
     7.981346   -7.956863   -1.526751
   Nb   Mo   Ta   Ti   W 
   6   5   6   6   6
Direct configuration=     8
   0.96566070  0.93566341  0.39495056
   0.63173021  0.26736123  0.40023676
   0.50236387  0.00029086 -0.00238860
  -0.00110126  0.00257171  0.00263915
   0.09676973  0.20470953  0.79792933
   0.03811651  0.06960762  0.59517476
   0.90606375  0.79588258  0.20455703
   0.73430296  0.46536671  0.20148018
   0.66309399  0.33956491 -0.00131876
   0.36525097  0.72675773  0.60029863
   0.13061968  0.27984497  0.39792749
   0.83399984  0.66456372  0.00332569
   0.92892542  0.87053382  0.79934511
   0.56632016  0.13261770  0.19926257
   0.40711714  0.79174202  0.19811961
   0.43837150  0.85779293  0.79566234
   0.30092673  0.59984527  0.40319537
   0.85868408  0.73198945  0.59658247
   0.46658936  0.92594338  0.40617536
   0.17116184  0.33497725  0.00335268
   0.27082029  0.53358864  0.79670533
   0.20284392  0.39126569  0.59722990
   0.06323991  0.14292791  0.20752443
   0.77096562  0.52883202  0.79906486
   0.68820097  0.41094075  0.60257806
   0.59639266  0.20223482  0.79679707
   0.53858376  0.06648854  0.60067773
   0.33523680  0.65769050  0.00076091
   0.22874886  0.46840433  0.20215398
SQS with 1 vacancy for VFE and VRV      
           1
    -3.195194   -3.158389   -3.180118
     1.549585    1.605269   -7.928423
     7.975409   -7.948752   -1.524691
   Nb   Mo   Ta   Ti   W 
   6   5   6   6   6
Direct configuration=     9
   0.96553035  0.93576592  0.39486379
   0.63172203  0.26743055  0.40023182
   0.50269793 -0.00001726 -0.00259872
  -0.00092805  0.00264563  0.00273316
   0.09686834  0.20424914  0.79792249
   0.03811838  0.06986641  0.59505695
   0.90603606  0.79595268  0.20455705
   0.73420222  0.46523418  0.20167315
   0.66327985  0.33931860 -0.00127567
   0.36481079  0.72683676  0.60025813
   0.13041307  0.28033809  0.39792044
   0.83390743  0.66489429  0.00323448
   0.92899741  0.87063680  0.79929105
   0.56630079  0.13241141  0.19940573
   0.40732972  0.79183237  0.19818971
   0.43794311  0.85798930  0.79572567
   0.30101385  0.59993352  0.40334016
   0.85823130  0.73181574  0.59623837
   0.46720493  0.92535121  0.40635761
   0.17130238  0.33494202  0.00343675
   0.27081886  0.53337999  0.79660174
   0.20243736  0.39110202  0.59712872
   0.06310614  0.14345629  0.20784813
   0.77108660  0.52906974  0.79913375
   0.68810582  0.41103079  0.60248344
   0.59658899  0.20200773  0.79667729
   0.53868233  0.06632064  0.60057608
   0.33521763  0.65783892  0.00065944
   0.22897438  0.46836655  0.20232929
SQS with 1 vacancy for VFE and VRV      
           1
    -3.195882   -3.157278   -3.180133
     1.548715    1.605297   -7.927839
     7.978336   -7.948778   -1.523109
   Nb   Mo   Ta   Ti   W 
   6   5   6   6   6
Direct configuration=    10
   0.96547516  0.93600218  0.39477520
   0.63162051  0.26753216  0.40034899
   0.50311380 -0.00010252 -0.00269439
  -0.00065859  0.00284168  0.00297868
   0.09676764  0.20396540  0.79793358
   0.03803259  0.07009557  0.59478758
   0.90615642  0.79598254  0.20454630
   0.73400626  0.46533135  0.20185231
   0.66353065  0.33920744 -0.00122270
   0.36408975  0.72695993  0.60035126
   0.13006573  0.28105322  0.39802570
   0.83407320  0.66484598  0.00322974
   0.92862199  0.87067853  0.79898051
   0.56642586  0.13203145  0.19957923
   0.40767718  0.79184547  0.19826741
   0.43792391  0.85809787  0.79560257
   0.30109998  0.60011339  0.40349517
   0.85742337  0.73145785  0.59566227
   0.46829786  0.92426267  0.40663260
   0.17149674  0.33492129  0.00351975
   0.27098951  0.53305523  0.79645968
   0.20184188  0.39091782  0.59699305
   0.06280195  0.14423579  0.20833126
   0.77109282  0.52905535  0.79914987
   0.68787227  0.41122691  0.60238681
   0.59676217  0.20181668  0.79653625
   0.53881049  0.06610278  0.60041872
   0.33544514  0.65783527  0.00066665
   0.22914375  0.46863070  0.20240593
SQS with 1 vacancy for VFE and VRV      
           1
    -3.197872   -3.154067   -3.180176
     1.546200    1.605376   -7.926151
     7.986796   -7.948856   -1.518537
   Nb   Mo   Ta   Ti   W 
   6   5   6   6   6
Direct configuration=    11
   0.96531541  0.93668519  0.39451921
   0.63132718  0.26782591  0.40068761
   0.50431586 -0.00034908 -0.00297075
   0.00012065  0.00340845  0.00368836
   0.09647664  0.20314518  0.79796554
   0.03778417  0.07075802  0.59400911
   0.90650433  0.79606885  0.20451525
   0.73344000  0.46561230  0.20237003
   0.66425577  0.33888605 -0.00106956
   0.36200552  0.72731610  0.60062022
   0.12906163  0.28312063  0.39832990
   0.83455240  0.66470629  0.00321608
   0.92753632  0.87079918  0.79808293
   0.56678774  0.13093304  0.20008066
   0.40868168  0.79188332  0.19849209
   0.43786821  0.85841169  0.79524681
   0.30134914  0.60063339  0.40394323
   0.85508717  0.73042327  0.59399700
   0.47145787  0.92111577  0.40742752
   0.17205870  0.33486135  0.00375967
   0.27148268  0.53211638  0.79604911
   0.20012038  0.39038539  0.59660073
   0.06192309  0.14648933  0.20972758
   0.77111082  0.52901376  0.79919647
   0.68719695  0.41179390  0.60210751
   0.59726265  0.20126435  0.79612866
   0.53918079  0.06547296  0.59996392
   0.33610283  0.65782471  0.00068758
   0.22963341  0.46939433  0.20262752
SQS with 1 vacancy for VFE and VRV      
           1
    -3.201405   -3.159188   -3.185323
     1.546198    1.606818   -7.936103
     7.996045   -7.963117   -1.520080
   Nb   Mo   Ta   Ti   W 
   6   5   6   6   6
Direct configuration=    12
   0.96571662  0.93681201  0.39454059
   0.63096067  0.26787226  0.40072452
   0.50447954  0.00004737 -0.00272621
   0.00008973  0.00340143  0.00370815
   0.09627653  0.20361355  0.79794971
   0.03770701  0.07044928  0.59401093
   0.90689037  0.79603723  0.20453256
   0.73355415  0.46614242  0.20224972
   0.66412900  0.33923961 -0.00099781
   0.36185005  0.72720913  0.60079648
   0.12897914  0.28307734  0.39857339
   0.83498556  0.66420843  0.00329557
   0.92746443  0.87051814  0.79783488
   0.56698707  0.13110552  0.20011250
   0.40858510  0.79188361  0.19832809
   0.43807034  0.85803151  0.79510671
   0.30123668  0.60076410  0.40391060
   0.85472557  0.73016953  0.59376378
   0.47201636  0.92059329  0.40742881
   0.17212625  0.33486989  0.00375007
   0.27166961  0.53208303  0.79613284
   0.20024598  0.39053419  0.59665717
   0.06175882  0.14661805  0.20974586
   0.77087926  0.52853446  0.79902080
   0.68678087  0.41180131  0.60225622
   0.59696379  0.20143370  0.79620252
   0.53890868  0.06559408  0.59994961
   0.33638586  0.65763025  0.00077806
   0.22957698  0.46972526  0.20236390
SQS with 1 vacancy for VFE and VRV      
           1
    -3.201282   -3.159010   -3.185144
     1.546198    1.606768   -7.935756
     7.995723   -7.962620   -1.520027
   Nb   Mo   Ta   Ti   W 
   6   5   6   6   6
Direct configuration=    13
   0.96570267  0.93680760  0.39453985
   0.63097343  0.26787065  0.40072324
   0.50447386  0.00003357 -0.00273472
   0.00009081  0.00340168  0.00370746
   0.09628349  0.20359725  0.79795026
   0.03770969  0.07046003  0.59401086
   0.90687693  0.79603833  0.20453196
   0.73355018  0.46612398  0.20225390
   0.66413341  0.33922730 -0.00100031
   0.36185546  0.72721285  0.60079035
   0.12898201  0.28307884  0.39856491
   0.83497049  0.66422575  0.00329281
   0.92746692  0.87052793  0.79784351
   0.56698014  0.13109951  0.20011139
   0.40858846  0.79188360  0.19833379
   0.43806330  0.85804475  0.79511159
   0.30124059  0.60075955  0.40391173
   0.85473814  0.73017836  0.59377189
   0.47199692  0.92061147  0.40742877
   0.17212390  0.33486959  0.00375040
   0.27166310  0.53208419  0.79612993
   0.20024162  0.39052901  0.59665520
   0.06176453  0.14661357  0.20974522
   0.77088731  0.52855114  0.79902691
   0.68679535  0.41180105  0.60225104
   0.59697419  0.20142781  0.79619995
   0.53891815  0.06558986  0.59995011
   0.33637601  0.65763702  0.00077491
   0.22957894  0.46971375  0.20237307
SQS with 1 vacancy for VFE and VRV      
           1
    -3.199167   -3.158628   -3.185580
     1.542331    1.604478   -7.931904
     7.990435   -7.963083   -1.518813
   Nb   Mo   Ta   Ti   W 
   6   5   6   6   6
Direct configuration=    14
   0.96626200  0.93693567  0.39456232
   0.63045744  0.26795687  0.40077423
   0.50471891  0.00045540 -0.00249632
   0.00004786  0.00334445  0.00365530
   0.09603623  0.20412286  0.79792358
   0.03756379  0.07006433  0.59409186
   0.90739263  0.79603742  0.20452263
   0.73372152  0.46677294  0.20207036
   0.66395476  0.33966972 -0.00092997
   0.36175270  0.72698574  0.60099322
   0.12892214  0.28293532  0.39886630
   0.83542995  0.66372635  0.00332886
   0.92729819  0.87026424  0.79759085
   0.56719115  0.13144279  0.20009526
   0.40848322  0.79190680  0.19802644
   0.43824540  0.85757229  0.79500369
   0.30106428  0.60087052  0.40384995
   0.85436423  0.72990928  0.59358203
   0.47260793  0.92012048  0.40740212
   0.17222736  0.33488349  0.00373606
   0.27183926  0.53207731  0.79629867
   0.20046665  0.39069869  0.59677005
   0.06162250  0.14673789  0.20968849
   0.77058993  0.52800155  0.79881263
   0.68628631  0.41170743  0.60249516
   0.59666591  0.20154891  0.79629871
   0.53855286  0.06574614  0.60003838
   0.33668125  0.65743741  0.00086603
   0.22955362  0.47006771  0.20208311
SQS with 1 vacancy for VFE and VRV      
           1
    -3.198344   -3.158479   -3.185749
     1.540825    1.603587   -7.930405
     7.988376   -7.963263   -1.518341
   Nb   Mo   Ta   Ti   W 
   6   5   6   6   6
Direct configuration=    15
   0.96647978  0.93698553  0.39457106
   0.63025647  0.26799050  0.40079411
   0.50481417  0.00061975 -0.00240348
   0.00003116  0.00332215  0.00363499
   0.09593983  0.20432762  0.79791323
   0.03750705  0.06991020  0.59412339
   0.90759345  0.79603703  0.20451897
   0.73378814  0.46702572  0.20199891
   0.66388507  0.33984208 -0.00090255
   0.36171269  0.72689731  0.60107221
   0.12889877  0.28287946  0.39898366
   0.83560898  0.66353178  0.00334286
   0.92723262  0.87016149  0.79749246
   0.56727324  0.13157650  0.20008898
   0.40844232  0.79191580  0.19790676
   0.43831646  0.85738821  0.79496165
   0.30099562  0.60091375  0.40382590
   0.85421874  0.72980445  0.59350810
   0.47284599  0.91992916  0.40739169
   0.17226764  0.33488889  0.00373047
   0.27190782  0.53207464  0.79636437
   0.20055421  0.39076480  0.59681476
   0.06156718  0.14678632  0.20966642
   0.77047432  0.52778744  0.79872918
   0.68608804  0.41167103  0.60259024
   0.59654580  0.20159613  0.79633719
   0.53841055  0.06580706  0.60007278
   0.33680013  0.65735965  0.00090149
   0.22954376  0.47020556  0.20197022
SQS with 1 vacancy for VFE and VRV      
           1
    -3.197846   -3.158073   -3.185425
     1.539871    1.603578   -7.929074
     7.985596   -7.961550   -1.517328
   Nb   Mo   Ta   Ti   W 
   6   5   6   6   6
Direct configuration=    16
   0.96669885  0.93702042  0.39456705
   0.63015991  0.26804719  0.40079344
   0.50491325  0.00057154 -0.00245845
   0.00012892  0.00331343  0.00355193
   0.09594358  0.20417608  0.79791810
   0.03741257  0.06984700  0.59420806
   0.90763355  0.79616721  0.20451801
   0.73393817  0.46712178  0.20201843
   0.66393691  0.33981901 -0.00087514
   0.36163851  0.72679950  0.60102463
   0.12875531  0.28285183  0.39907854
   0.83570615  0.66366462  0.00319828
   0.92714881  0.87006573  0.79752541
   0.56729117  0.13176548  0.20014599
   0.40842985  0.79214618  0.19784741
   0.43821354  0.85735189  0.79504669
   0.30090666  0.60096555  0.40375125
   0.85407912  0.72972408  0.59339925
   0.47322401  0.91981740  0.40729478
   0.17233378  0.33484052  0.00376086
   0.27174476  0.53203683  0.79648891
   0.20044965  0.39078312  0.59689102
   0.06166474  0.14691705  0.20961676
   0.77043497  0.52784712  0.79874957
   0.68605363  0.41146318  0.60257853
   0.59653293  0.20146974  0.79641154
   0.53821268  0.06573812  0.60012067
   0.33675671  0.65748374  0.00080712
   0.22965732  0.47018461  0.20202134
SQS with 1 vacancy for VFE and VRV      
           1
    -3.197027   -3.157405   -3.184890
     1.538300    1.603563   -7.926885
     7.981021   -7.958729   -1.515660
   Nb   Mo   Ta   Ti   W 
   6   5   6   6   6
Direct configuration=    17
   0.96705947  0.93707787  0.39456044
   0.63000094  0.26814052  0.40079234
   0.50507638  0.00049218 -0.00254894
   0.00028988  0.00329906  0.00341519
   0.09594977  0.20392660  0.79792610
   0.03725703  0.06974296  0.59434744
   0.90769953  0.79638153  0.20451645
   0.73418512  0.46727992  0.20205058
   0.66402226  0.33978104 -0.00083002
   0.36151642  0.72663849  0.60094628
   0.12851913  0.28280637  0.39923476
   0.83586611  0.66388328  0.00296027
   0.92701086  0.86990809  0.79757965
   0.56732066  0.13207660  0.20023988
   0.40840930  0.79252542  0.19774971
   0.43804410  0.85729213  0.79518672
   0.30076022  0.60105083  0.40362835
   0.85384931  0.72959176  0.59322004
   0.47384633  0.91963339  0.40713521
   0.17244264  0.33476090  0.00381089
   0.27147632  0.53197461  0.79669395
   0.20027752  0.39081331  0.59701658
   0.06182532  0.14713226  0.20953503
   0.77037019  0.52794539  0.79878313
   0.68599702  0.41112103  0.60255923
   0.59651175  0.20126170  0.79653395
   0.53788696  0.06562465  0.60019952
   0.33668522  0.65768801  0.00065178
   0.22984425  0.47015014  0.20210550
SQS with 1 vacancy for VFE and VRV      
           1
    -3.197436   -3.157766   -3.185281
     1.538225    1.604015   -7.927849
     7.981397   -7.959449   -1.515388
   Nb   Mo   Ta   Ti   W 
   6   5   6   6   6
Direct configuration=    18
   0.96715968  0.93710273  0.39455984
   0.62996581  0.26816557  0.40080290
   0.50511137  0.00047833 -0.00256995
   0.00034598  0.00330528  0.00337842
   0.09594379  0.20384839  0.79793680
   0.03720275  0.06970417  0.59438792
   0.90772004  0.79644832  0.20451324
   0.73424787  0.46733568  0.20206028
   0.66405426  0.33977273 -0.00081540
   0.36147426  0.72659177  0.60092575
   0.12844695  0.28280323  0.39928520
   0.83591461  0.66393657  0.00289683
   0.92698831  0.86985422  0.79757798
   0.56734075  0.13215931  0.20026174
   0.40840858  0.79263220  0.19772357
   0.43798973  0.85727226  0.79521122
   0.30071173  0.60107890  0.40359278
   0.85377361  0.72954848  0.59316547
   0.47404199  0.91957791  0.40709250
   0.17247460  0.33474400  0.00382415
   0.27139384  0.53194939  0.79675090
   0.20021389  0.39081468  0.59705437
   0.06187336  0.14719790  0.20951557
   0.77035086  0.52796011  0.79878953
   0.68598088  0.41102759  0.60255309
   0.59649033  0.20120902  0.79656943
   0.53781001  0.06557936  0.60021603
   0.33668171  0.65774111  0.00061665
   0.22988841  0.47016082  0.20212318
SQS with 1 vacancy for VFE and VRV      
           1
    -3.198664   -3.158851   -3.186453
     1.537998    1.605370   -7.930743
     7.982526   -7.961610   -1.514570
   Nb   Mo   Ta   Ti   W 
   6   5   6   6   6
Direct configuration=    19
   0.96746026  0.93717730  0.39455804
   0.62986041  0.26824074  0.40083460
   0.50521631  0.00043678 -0.00263297
   0.00051429  0.00332393  0.00326811
   0.09592587  0.20361379  0.79796888
   0.03703994  0.06958782  0.59450935
   0.90778157  0.79664868  0.20450362
   0.73443608  0.46750296  0.20208937
   0.66415024  0.33974781 -0.00077156
   0.36134780  0.72645162  0.60086415
   0.12823045  0.28279380  0.39943651
   0.83606011  0.66409640  0.00270654
   0.92692069  0.86969264  0.79757299
   0.56740104  0.13240740  0.20032733
   0.40840642  0.79295253  0.19764515
   0.43782664  0.85721265  0.79528471
   0.30056628  0.60116309  0.40348608
   0.85354657  0.72941862  0.59300178
   0.47462890  0.91941148  0.40696437
   0.17257049  0.33469328  0.00386393
   0.27114643  0.53187373  0.79692174
   0.20002303  0.39081881  0.59716774
   0.06201747  0.14739480  0.20945722
   0.77029289  0.52800427  0.79880874
   0.68593249  0.41074730  0.60253470
   0.59642610  0.20105100  0.79667584
   0.53757918  0.06544353  0.60026557
   0.33667116  0.65790039  0.00051127
   0.23002090  0.47019287  0.20217623
SQS with 1 vacancy for VFE and VRV      
           1
    -3.198789   -3.158838   -3.186490
     1.537985    1.605609   -7.931005
     7.982899   -7.961881   -1.514350
   Nb   Mo   Ta   Ti   W 
   6   5   6   6   6
Direct configuration=    20
   0.96747256  0.93720575  0.39455701
   0.62986965  0.26823659  0.40086081
   0.50520510  0.00046568 -0.00262110
   0.00052806  0.00334645  0.00327452
   0.09589924  0.20360666  0.79798621
   0.03701895  0.06955475  0.59450594
   0.90780212  0.79667055  0.20448820
   0.73442421  0.46754691  0.20208389
   0.66416488  0.33976644 -0.00076642
   0.36132686  0.72642967  0.60086597
   0.12822874  0.28280931  0.39945470
   0.83605867  0.66407617  0.00272972
   0.92692424  0.86967760  0.79754055
   0.56745827  0.13240597  0.20031775
   0.40842057  0.79296042  0.19762819
   0.43781930  0.85718629  0.79525045
   0.30054872  0.60117129  0.40347181
   0.85350648  0.72939580  0.59298754
   0.47468534  0.91939530  0.40697291
   0.17257545  0.33471172  0.00386845
   0.27114753  0.53184939  0.79692619
   0.19999615  0.39079559  0.59717519
   0.06202468  0.14742215  0.20946463
   0.77027605  0.52795956  0.79879906
   0.68590595  0.41074710  0.60254936
   0.59639002  0.20105789  0.79667624
   0.53759832  0.06541507  0.60025776
   0.33671686  0.65788562  0.00053342
   0.23000705  0.47024830  0.20216103
SQS with 1 vacancy for VFE and VRV      
           1
    -3.199163   -3.158801   -3.186600
     1.537948    1.606327   -7.931793
     7.984019   -7.962694   -1.513690
   Nb   Mo   Ta   Ti   W 
   6   5   6   6   6
Direct configuration=    21
   0.96750944  0.93729111  0.39455394
   0.62989737  0.26822417  0.40093946
   0.50517146  0.00055237 -0.00258546
   0.00056936  0.00341403  0.00329377
   0.09581936  0.20358526  0.79803821
   0.03695596  0.06945555  0.59449574
   0.90786376  0.79673615  0.20444192
   0.73438859  0.46767878  0.20206747
   0.66420879  0.33982233 -0.00075099
   0.36126401  0.72636382  0.60087142
   0.12822363  0.28285584  0.39950926
   0.83605435  0.66401547  0.00279927
   0.92693489  0.86963249  0.79744325
   0.56762996  0.13240167  0.20028900
   0.40846301  0.79298409  0.19757731
   0.43779728  0.85710719  0.79514766
   0.30049604  0.60119589  0.40342903
   0.85338624  0.72932733  0.59294481
   0.47485465  0.91934674  0.40699854
   0.17259033  0.33476706  0.00388200
   0.27115081  0.53177638  0.79693955
   0.19991554  0.39072593  0.59719752
   0.06204632  0.14750420  0.20948688
   0.77022551  0.52782545  0.79877002
   0.68582634  0.41074649  0.60259336
   0.59628179  0.20107859  0.79667744
   0.53765575  0.06532972  0.60023432
   0.33685396  0.65784134  0.00059988
   0.22996552  0.47041459  0.20211545
