  30  30   0   0
  0.1577725E+02  0.5473281E-09  0.8209921E-09  0.1128346E-08  0.5000000E-15
  1.000000000000000E-004
  CAR 
 Nb - Mo - Ta - Ti - V SQS               
     11.70637672    -50.03382281  301      6.73287024      1.00000000
    -50.034  0.0000E+00  0.0000E+00
    -49.828  0.0000E+00  0.0000E+00
    -49.622  0.0000E+00  0.0000E+00
    -49.416  0.0000E+00  0.0000E+00
    -49.211  0.0000E+00  0.0000E+00
    -49.005 -0.9469E-33 -0.1949E-33
    -48.799 -0.2769E-25 -0.5699E-26
    -48.593 -0.9495E-19 -0.1954E-19
    -48.387 -0.3781E-13 -0.7782E-14
    -48.182 -0.1802E-08 -0.3709E-09
    -47.976 -0.1006E-04 -0.2071E-05
    -47.770 -0.6365E-02 -0.1312E-02
    -47.564 -0.4047E+00 -0.8459E-01
    -47.358 -0.6413E-01 -0.9779E-01
    -47.153  0.2433E+02  0.4910E+01
    -46.947  0.3157E+02  0.1141E+02
    -46.741  0.3666E+01  0.1216E+02
    -46.535 -0.7519E+00  0.1201E+02
    -46.329 -0.3481E-01  0.1200E+02
    -46.124 -0.1539E-03  0.1200E+02
    -45.918 -0.7824E-07  0.1200E+02
    -45.712 -0.4677E-11  0.1200E+02
    -45.506  0.0000E+00  0.1200E+02
    -45.300  0.0000E+00  0.1200E+02
    -45.095  0.0000E+00  0.1200E+02
    -44.889  0.0000E+00  0.1200E+02
    -44.683  0.0000E+00  0.1200E+02
    -44.477  0.0000E+00  0.1200E+02
    -44.271  0.0000E+00  0.1200E+02
    -44.066  0.0000E+00  0.1200E+02
    -43.860  0.0000E+00  0.1200E+02
    -43.654  0.0000E+00  0.1200E+02
    -43.448  0.0000E+00  0.1200E+02
    -43.242  0.0000E+00  0.1200E+02
    -43.037  0.0000E+00  0.1200E+02
    -42.831  0.0000E+00  0.1200E+02
    -42.625  0.0000E+00  0.1200E+02
    -42.419  0.0000E+00  0.1200E+02
    -42.213  0.0000E+00  0.1200E+02
    -42.008  0.0000E+00  0.1200E+02
    -41.802  0.0000E+00  0.1200E+02
    -41.596  0.0000E+00  0.1200E+02
    -41.390  0.0000E+00  0.1200E+02
    -41.184  0.0000E+00  0.1200E+02
    -40.979  0.0000E+00  0.1200E+02
    -40.773  0.0000E+00  0.1200E+02
    -40.567  0.0000E+00  0.1200E+02
    -40.361  0.0000E+00  0.1200E+02
    -40.155  0.0000E+00  0.1200E+02
    -39.950  0.0000E+00  0.1200E+02
    -39.744  0.0000E+00  0.1200E+02
    -39.538  0.0000E+00  0.1200E+02
    -39.332  0.0000E+00  0.1200E+02
    -39.126  0.0000E+00  0.1200E+02
    -38.921  0.0000E+00  0.1200E+02
    -38.715  0.0000E+00  0.1200E+02
    -38.509  0.0000E+00  0.1200E+02
    -38.303  0.0000E+00  0.1200E+02
    -38.097  0.0000E+00  0.1200E+02
    -37.892  0.0000E+00  0.1200E+02
    -37.686  0.0000E+00  0.1200E+02
    -37.480  0.0000E+00  0.1200E+02
    -37.274  0.0000E+00  0.1200E+02
    -37.068  0.0000E+00  0.1200E+02
    -36.863  0.0000E+00  0.1200E+02
    -36.657  0.0000E+00  0.1200E+02
    -36.451  0.0000E+00  0.1200E+02
    -36.245  0.0000E+00  0.1200E+02
    -36.039  0.0000E+00  0.1200E+02
    -35.834  0.0000E+00  0.1200E+02
    -35.628  0.0000E+00  0.1200E+02
    -35.422  0.0000E+00  0.1200E+02
    -35.216  0.0000E+00  0.1200E+02
    -35.010  0.0000E+00  0.1200E+02
    -34.805  0.0000E+00  0.1200E+02
    -34.599  0.0000E+00  0.1200E+02
    -34.393  0.0000E+00  0.1200E+02
    -34.187  0.0000E+00  0.1200E+02
    -33.981  0.0000E+00  0.1200E+02
    -33.776  0.0000E+00  0.1200E+02
    -33.570  0.0000E+00  0.1200E+02
    -33.364  0.0000E+00  0.1200E+02
    -33.158  0.0000E+00  0.1200E+02
    -32.952  0.0000E+00  0.1200E+02
    -32.747  0.0000E+00  0.1200E+02
    -32.541  0.0000E+00  0.1200E+02
    -32.335  0.0000E+00  0.1200E+02
    -32.129  0.0000E+00  0.1200E+02
    -31.923  0.0000E+00  0.1200E+02
    -31.718  0.0000E+00  0.1200E+02
    -31.512  0.0000E+00  0.1200E+02
    -31.306  0.0000E+00  0.1200E+02
    -31.100  0.0000E+00  0.1200E+02
    -30.894  0.0000E+00  0.1200E+02
    -30.689  0.0000E+00  0.1200E+02
    -30.483  0.0000E+00  0.1200E+02
    -30.277  0.0000E+00  0.1200E+02
    -30.071  0.0000E+00  0.1200E+02
    -29.865  0.0000E+00  0.1200E+02
    -29.660  0.0000E+00  0.1200E+02
    -29.454  0.0000E+00  0.1200E+02
    -29.248  0.0000E+00  0.1200E+02
    -29.042  0.0000E+00  0.1200E+02
    -28.836  0.0000E+00  0.1200E+02
    -28.631  0.0000E+00  0.1200E+02
    -28.425  0.0000E+00  0.1200E+02
    -28.219  0.0000E+00  0.1200E+02
    -28.013  0.0000E+00  0.1200E+02
    -27.807  0.0000E+00  0.1200E+02
    -27.602  0.0000E+00  0.1200E+02
    -27.396  0.0000E+00  0.1200E+02
    -27.190  0.0000E+00  0.1200E+02
    -26.984  0.0000E+00  0.1200E+02
    -26.778  0.0000E+00  0.1200E+02
    -26.573  0.0000E+00  0.1200E+02
    -26.367  0.0000E+00  0.1200E+02
    -26.161  0.0000E+00  0.1200E+02
    -25.955  0.0000E+00  0.1200E+02
    -25.749 -0.3871E-32  0.1200E+02
    -25.544 -0.7512E-25  0.1200E+02
    -25.338 -0.1723E-18  0.1200E+02
    -25.132 -0.4516E-13  0.1200E+02
    -24.926 -0.1407E-08  0.1200E+02
    -24.720 -0.5071E-05  0.1200E+02
    -24.515 -0.2108E-02  0.1200E+02
    -24.309 -0.9997E-01  0.1198E+02
    -24.103 -0.1474E+00  0.1195E+02
    -23.897  0.5882E+01  0.1316E+02
    -23.691  0.1553E+02  0.1636E+02
    -23.486  0.1963E+02  0.2039E+02
    -23.280  0.5392E+02  0.3149E+02
    -23.074  0.4822E+02  0.4142E+02
    -22.868  0.2069E+02  0.4567E+02
    -22.662  0.9660E+01  0.4766E+02
    -22.457  0.1828E+01  0.4804E+02
    -22.251 -0.1516E+00  0.4801E+02
    -22.045 -0.3412E-01  0.4800E+02
    -21.839 -0.4789E-03  0.4800E+02
    -21.633 -0.6921E-06  0.4800E+02
    -21.428 -0.1107E-09  0.4800E+02
    -21.222 -0.2158E-14  0.4800E+02
    -21.016  0.0000E+00  0.4800E+02
    -20.810  0.0000E+00  0.4800E+02
    -20.604  0.0000E+00  0.4800E+02
    -20.399  0.0000E+00  0.4800E+02
    -20.193  0.0000E+00  0.4800E+02
    -19.987  0.0000E+00  0.4800E+02
    -19.781  0.0000E+00  0.4800E+02
    -19.575  0.0000E+00  0.4800E+02
    -19.370  0.0000E+00  0.4800E+02
    -19.164  0.0000E+00  0.4800E+02
    -18.958  0.0000E+00  0.4800E+02
    -18.752  0.0000E+00  0.4800E+02
    -18.546  0.0000E+00  0.4800E+02
    -18.341  0.0000E+00  0.4800E+02
    -18.135  0.0000E+00  0.4800E+02
    -17.929  0.0000E+00  0.4800E+02
    -17.723  0.0000E+00  0.4800E+02
    -17.517  0.0000E+00  0.4800E+02
    -17.312  0.0000E+00  0.4800E+02
    -17.106  0.0000E+00  0.4800E+02
    -16.900  0.0000E+00  0.4800E+02
    -16.694  0.0000E+00  0.4800E+02
    -16.488  0.0000E+00  0.4800E+02
    -16.283  0.0000E+00  0.4800E+02
    -16.077  0.0000E+00  0.4800E+02
    -15.871  0.0000E+00  0.4800E+02
    -15.665  0.0000E+00  0.4800E+02
    -15.459  0.0000E+00  0.4800E+02
    -15.254  0.0000E+00  0.4800E+02
    -15.048  0.0000E+00  0.4800E+02
    -14.842  0.0000E+00  0.4800E+02
    -14.636  0.0000E+00  0.4800E+02
    -14.430  0.0000E+00  0.4800E+02
    -14.225  0.0000E+00  0.4800E+02
    -14.019  0.0000E+00  0.4800E+02
    -13.813  0.0000E+00  0.4800E+02
    -13.607  0.0000E+00  0.4800E+02
    -13.401  0.0000E+00  0.4800E+02
    -13.196  0.0000E+00  0.4800E+02
    -12.990  0.0000E+00  0.4800E+02
    -12.784  0.0000E+00  0.4800E+02
    -12.578  0.0000E+00  0.4800E+02
    -12.372  0.0000E+00  0.4800E+02
    -12.167  0.0000E+00  0.4800E+02
    -11.961  0.0000E+00  0.4800E+02
    -11.755  0.0000E+00  0.4800E+02
    -11.549  0.0000E+00  0.4800E+02
    -11.343  0.0000E+00  0.4800E+02
    -11.137  0.0000E+00  0.4800E+02
    -10.932  0.0000E+00  0.4800E+02
    -10.726  0.0000E+00  0.4800E+02
    -10.520  0.0000E+00  0.4800E+02
    -10.314  0.0000E+00  0.4800E+02
    -10.108  0.0000E+00  0.4800E+02
     -9.903  0.0000E+00  0.4800E+02
     -9.697  0.0000E+00  0.4800E+02
     -9.491  0.0000E+00  0.4800E+02
     -9.285  0.0000E+00  0.4800E+02
     -9.079  0.0000E+00  0.4800E+02
     -8.874  0.0000E+00  0.4800E+02
     -8.668  0.0000E+00  0.4800E+02
     -8.462  0.0000E+00  0.4800E+02
     -8.256  0.0000E+00  0.4800E+02
     -8.050  0.0000E+00  0.4800E+02
     -7.845  0.0000E+00  0.4800E+02
     -7.639  0.0000E+00  0.4800E+02
     -7.433  0.0000E+00  0.4800E+02
     -7.227  0.0000E+00  0.4800E+02
     -7.021  0.0000E+00  0.4800E+02
     -6.816  0.0000E+00  0.4800E+02
     -6.610  0.0000E+00  0.4800E+02
     -6.404  0.0000E+00  0.4800E+02
     -6.198  0.0000E+00  0.4800E+02
     -5.992  0.0000E+00  0.4800E+02
     -5.787  0.0000E+00  0.4800E+02
     -5.581  0.0000E+00  0.4800E+02
     -5.375  0.0000E+00  0.4800E+02
     -5.169  0.0000E+00  0.4800E+02
     -4.963  0.0000E+00  0.4800E+02
     -4.758  0.0000E+00  0.4800E+02
     -4.552  0.0000E+00  0.4800E+02
     -4.346  0.0000E+00  0.4800E+02
     -4.140  0.0000E+00  0.4800E+02
     -3.934  0.0000E+00  0.4800E+02
     -3.729  0.0000E+00  0.4800E+02
     -3.523  0.0000E+00  0.4800E+02
     -3.317  0.0000E+00  0.4800E+02
     -3.111  0.0000E+00  0.4800E+02
     -2.905  0.0000E+00  0.4800E+02
     -2.700  0.0000E+00  0.4800E+02
     -2.494  0.0000E+00  0.4800E+02
     -2.288  0.0000E+00  0.4800E+02
     -2.082  0.0000E+00  0.4800E+02
     -1.876 -0.3796E-35  0.4800E+02
     -1.671 -0.1154E-27  0.4800E+02
     -1.465 -0.4148E-21  0.4800E+02
     -1.259 -0.1728E-15  0.4800E+02
     -1.053 -0.8629E-11  0.4800E+02
     -0.847 -0.5111E-07  0.4800E+02
     -0.642 -0.3550E-04  0.4800E+02
     -0.436 -0.2756E-02  0.4800E+02
     -0.230 -0.1312E-01  0.4800E+02
     -0.024  0.1677E+00  0.4803E+02
      0.182  0.7305E+00  0.4818E+02
      0.387  0.1440E+01  0.4848E+02
      0.593  0.1973E+01  0.4888E+02
      0.799  0.1534E+01  0.4920E+02
      1.005  0.1910E+01  0.4959E+02
      1.211  0.2955E+01  0.5020E+02
      1.416  0.3514E+01  0.5092E+02
      1.622  0.3008E+01  0.5154E+02
      1.828  0.3006E+01  0.5216E+02
      2.034  0.4831E+01  0.5316E+02
      2.240  0.4873E+01  0.5416E+02
      2.445  0.6672E+01  0.5553E+02
      2.651  0.9729E+01  0.5753E+02
      2.857  0.1580E+02  0.6079E+02
      3.063  0.2085E+02  0.6508E+02
      3.269  0.2405E+02  0.7003E+02
      3.474  0.2959E+02  0.7612E+02
      3.680  0.3092E+02  0.8248E+02
      3.886  0.3108E+02  0.8887E+02
      4.092  0.3143E+02  0.9534E+02
      4.298  0.3167E+02  0.1019E+03
      4.503  0.2876E+02  0.1078E+03
      4.709  0.2289E+02  0.1125E+03
      4.915  0.2802E+02  0.1183E+03
      5.121  0.3681E+02  0.1258E+03
      5.327  0.4345E+02  0.1348E+03
      5.532  0.4524E+02  0.1441E+03
      5.738  0.4376E+02  0.1531E+03
      5.944  0.3974E+02  0.1613E+03
      6.150  0.4122E+02  0.1698E+03
      6.356  0.4657E+02  0.1793E+03
      6.561  0.5070E+02  0.1898E+03
      6.767  0.4752E+02  0.1996E+03
      6.973  0.4139E+02  0.2081E+03
      7.179  0.2941E+02  0.2141E+03
      7.385  0.1845E+02  0.2179E+03
      7.590  0.1268E+02  0.2205E+03
      7.796  0.1346E+02  0.2233E+03
      8.002  0.1712E+02  0.2268E+03
      8.208  0.1945E+02  0.2308E+03
      8.414  0.2026E+02  0.2350E+03
      8.619  0.1548E+02  0.2382E+03
      8.825  0.7761E+01  0.2398E+03
      9.031  0.1266E+01  0.2400E+03
      9.237 -0.1760E+00  0.2400E+03
      9.443 -0.1779E-01  0.2400E+03
      9.648 -0.1832E-03  0.2400E+03
      9.854 -0.2419E-06  0.2400E+03
     10.060 -0.3996E-10  0.2400E+03
     10.266 -0.8459E-15  0.2400E+03
     10.472  0.0000E+00  0.2400E+03
     10.677  0.0000E+00  0.2400E+03
     10.883  0.0000E+00  0.2400E+03
     11.089  0.0000E+00  0.2400E+03
     11.295  0.0000E+00  0.2400E+03
     11.501  0.0000E+00  0.2400E+03
     11.706  0.0000E+00  0.2400E+03
