   30   30    1    1
  0.1577725E+02  0.5473281E-09  0.8209921E-09  0.1128346E-08  0.5000000E-15
  1.000000000000000E-004
  CAR 
 Nb - Mo - Ta - Ti - V SQS               
    198     63    120
 
  0.0000000E+00  0.0000000E+00  0.0000000E+00  0.8000000E-02
    1      -47.227450   1.000000
    2      -47.205418   1.000000
    3      -47.159849   1.000000
    4      -47.104202   1.000000
    5      -47.069986   1.000000
    6      -46.975081   1.000000
    7      -24.003656   1.000000
    8      -23.839234   1.000000
    9      -23.677591   1.000000
   10      -23.631774   1.000000
   11      -23.399899   1.000000
   12      -23.392449   1.000000
   13      -23.386384   1.000000
   14      -23.335945   1.000000
   15      -23.318411   1.000000
   16      -23.299100   1.000000
   17      -23.267741   1.000000
   18      -23.224880   1.000000
   19      -23.188382   1.000000
   20      -23.165175   1.000000
   21      -23.017861   1.000000
   22      -22.998325   1.000000
   23      -22.842732   1.000000
   24      -22.610455   1.000000
   25       -0.088396   1.000000
   26        1.227071   1.000000
   27        1.586963   1.000000
   28        2.370491   1.000000
   29        2.486146   1.000000
   30        2.571990   1.000000
   31        2.671687   1.000000
   32        2.794965   1.000000
   33        2.850558   1.000000
   34        2.921109   1.000000
   35        2.996720   1.000000
   36        3.035229   1.000000
   37        3.097875   1.000000
   38        3.160468   1.000000
   39        3.256447   1.000000
   40        3.302954   1.000000
   41        3.390278   1.000000
   42        3.473951   1.000000
   43        3.581115   1.000000
   44        3.636422   1.000000
   45        3.724089   1.000000
   46        3.764215   1.000000
   47        3.808985   1.000000
   48        3.828509   1.000000
   49        4.013330   1.000000
   50        4.036533   1.000000
   51        4.137003   1.000000
   52        4.177298   1.000000
   53        4.269039   1.000000
   54        4.311306   1.000000
   55        4.440914   1.000000
   56        4.519660   1.000000
   57        4.606550   1.000000
   58        4.658322   1.000000
   59        4.777960   1.000000
   60        4.814747   1.000000
   61        4.900190   1.000000
   62        4.945781   1.000000
   63        4.953001   1.000000
   64        5.051964   1.000000
   65        5.056976   1.000000
   66        5.151978   1.000000
   67        5.165310   1.000000
   68        5.254021   1.000000
   69        5.267216   1.000000
   70        5.324396   1.000000
   71        5.385042   1.000000
   72        5.414301   1.000000
   73        5.473359   1.000000
   74        5.518168   1.000000
   75        5.530799   1.000000
   76        5.550665   1.000000
   77        5.566704   1.000000
   78        5.692948   1.000000
   79        5.758363   1.000000
   80        5.848724   1.000000
   81        6.034279   1.000005
   82        6.087656   1.000025
   83        6.125815   1.000077
   84        6.165104   1.000224
   85        6.225374   1.000978
   86        6.289484   1.003730
   87        6.336880   1.008525
   88        6.378932   1.015623
   89        6.383052   1.016462
   90        6.419947   1.024704
   91        6.447030   1.030657
   92        6.467395   1.034052
   93        6.497310   1.035096
   94        6.569792   0.993882
   95        6.724747   0.534340
   96        6.758945   0.390703
   97        6.837320   0.117929
   98        6.878704   0.030355
   99        6.923625  -0.019641
  100        7.015308  -0.031318
  101        7.083573  -0.016280
  102        7.116036  -0.010393
  103        7.159585  -0.005071
  104        7.174881  -0.003828
  105        7.207917  -0.001985
  106        7.344664  -0.000067
  107        7.589324  -0.000000
  108        7.742933  -0.000000
  109        7.786317  -0.000000
  110        7.872709  -0.000000
  111        8.213641  -0.000000
  112        8.377661  -0.000000
  113        8.526894  -0.000000
  114        8.622667  -0.000000
  115        8.684269  -0.000000
  116        8.690646  -0.000000
  117        8.723218  -0.000000
  118        8.740673  -0.000000
  119        8.824593  -0.000000
  120        8.852133  -0.000000
 
  0.2000000E+00  0.0000000E+00  0.6938894E-17  0.1600000E-01
    1      -47.224206   1.000000
    2      -47.199325   1.000000
    3      -47.157142   1.000000
    4      -47.103024   1.000000
    5      -47.069426   1.000000
    6      -46.988180   1.000000
    7      -23.903158   1.000000
    8      -23.826935   1.000000
    9      -23.670070   1.000000
   10      -23.625392   1.000000
   11      -23.397530   1.000000
   12      -23.394457   1.000000
   13      -23.385105   1.000000
   14      -23.338412   1.000000
   15      -23.317370   1.000000
   16      -23.304221   1.000000
   17      -23.270122   1.000000
   18      -23.228798   1.000000
   19      -23.198938   1.000000
   20      -23.168052   1.000000
   21      -23.024041   1.000000
   22      -23.004579   1.000000
   23      -22.845105   1.000000
   24      -22.743268   1.000000
   25        0.230123   1.000000
   26        1.508164   1.000000
   27        1.855539   1.000000
   28        2.430110   1.000000
   29        2.706625   1.000000
   30        2.813956   1.000000
   31        2.854617   1.000000
   32        2.968027   1.000000
   33        2.997987   1.000000
   34        3.047140   1.000000
   35        3.183052   1.000000
   36        3.241625   1.000000
   37        3.292631   1.000000
   38        3.388958   1.000000
   39        3.410256   1.000000
   40        3.476504   1.000000
   41        3.528260   1.000000
   42        3.607449   1.000000
   43        3.652172   1.000000
   44        3.691991   1.000000
   45        3.806019   1.000000
   46        3.857001   1.000000
   47        3.923057   1.000000
   48        4.012365   1.000000
   49        4.076199   1.000000
   50        4.106379   1.000000
   51        4.220511   1.000000
   52        4.296543   1.000000
   53        4.320003   1.000000
   54        4.414906   1.000000
   55        4.469962   1.000000
   56        4.543484   1.000000
   57        4.623820   1.000000
   58        4.703568   1.000000
   59        4.820219   1.000000
   60        4.878279   1.000000
   61        4.940008   1.000000
   62        5.070521   1.000000
   63        5.097760   1.000000
   64        5.163544   1.000000
   65        5.193780   1.000000
   66        5.233944   1.000000
   67        5.286779   1.000000
   68        5.343886   1.000000
   69        5.365307   1.000000
   70        5.380143   1.000000
   71        5.447034   1.000000
   72        5.477854   1.000000
   73        5.544435   1.000000
   74        5.566576   1.000000
   75        5.644496   1.000000
   76        5.678905   1.000000
   77        5.701184   1.000000
   78        5.738608   1.000000
   79        5.785577   1.000000
   80        5.821696   1.000000
   81        5.843932   1.000000
   82        5.939191   1.000000
   83        5.995465   1.000001
   84        6.056976   1.000010
   85        6.132455   1.000092
   86        6.183230   1.000356
   87        6.211857   1.000715
   88        6.300464   1.004576
   89        6.392730   1.018517
   90        6.404657   1.021179
   91        6.447093   1.030669
   92        6.468659   1.034208
   93        6.515547   1.031938
   94        6.549114   1.014517
   95        6.630507   0.876518
   96        6.647974   0.825849
   97        6.714858   0.575873
   98        6.750381   0.426217
   99        6.813359   0.188077
  100        6.866492   0.051756
  101        6.891302   0.011986
  102        6.938531  -0.027821
  103        7.034123  -0.027371
  104        7.060309  -0.021356
  105        7.108626  -0.011592
  106        7.129037  -0.008501
  107        7.177570  -0.003638
  108        7.367275  -0.000035
  109        7.509194  -0.000000
  110        7.609524  -0.000000
  111        7.902197  -0.000000
  112        7.933858  -0.000000
  113        7.984987  -0.000000
  114        8.016376  -0.000000
  115        8.116748  -0.000000
  116        8.280241  -0.000000
  117        8.332012  -0.000000
  118        8.390744  -0.000000
  119        8.411987  -0.000000
  120        8.446205  -0.000000
 
  0.4000000E+00  0.0000000E+00  0.1387779E-16  0.1600000E-01
    1      -47.220731   1.000000
    2      -47.188443   1.000000
    3      -47.149604   1.000000
    4      -47.099230   1.000000
    5      -47.067396   1.000000
    6      -47.014793   1.000000
    7      -23.850723   1.000000
    8      -23.694064   1.000000
    9      -23.641488   1.000000
   10      -23.515620   1.000000
   11      -23.405288   1.000000
   12      -23.398340   1.000000
   13      -23.370791   1.000000
   14      -23.340627   1.000000
   15      -23.316843   1.000000
   16      -23.305148   1.000000
   17      -23.274679   1.000000
   18      -23.237626   1.000000
   19      -23.221611   1.000000
   20      -23.173976   1.000000
   21      -23.108502   1.000000
   22      -23.029353   1.000000
   23      -22.995117   1.000000
   24      -22.839296   1.000000
   25        1.081147   1.000000
   26        2.035411   1.000000
   27        2.370073   1.000000
   28        2.585594   1.000000
   29        2.664097   1.000000
   30        3.017752   1.000000
   31        3.075712   1.000000
   32        3.253927   1.000000
   33        3.352629   1.000000
   34        3.409607   1.000000
   35        3.456133   1.000000
   36        3.495483   1.000000
   37        3.550312   1.000000
   38        3.589463   1.000000
   39        3.681216   1.000000
   40        3.740863   1.000000
   41        3.817336   1.000000
   42        3.851023   1.000000
   43        3.878498   1.000000
   44        3.956920   1.000000
   45        4.058867   1.000000
   46        4.065376   1.000000
   47        4.145649   1.000000
   48        4.182721   1.000000
   49        4.278610   1.000000
   50        4.299955   1.000000
   51        4.436973   1.000000
   52        4.491717   1.000000
   53        4.551167   1.000000
   54        4.633135   1.000000
   55        4.688071   1.000000
   56        4.762460   1.000000
   57        4.835668   1.000000
   58        4.886526   1.000000
   59        4.917422   1.000000
   60        4.980907   1.000000
   61        5.009752   1.000000
   62        5.057500   1.000000
   63        5.118110   1.000000
   64        5.149850   1.000000
   65        5.186065   1.000000
   66        5.266461   1.000000
   67        5.293191   1.000000
   68        5.323532   1.000000
   69        5.362424   1.000000
   70        5.430224   1.000000
   71        5.476332   1.000000
   72        5.536083   1.000000
   73        5.574626   1.000000
   74        5.620459   1.000000
   75        5.656510   1.000000
   76        5.721887   1.000000
   77        5.774602   1.000000
   78        5.799939   1.000000
   79        5.810492   1.000000
   80        5.863336   1.000000
   81        5.958189   1.000000
   82        5.999968   1.000001
   83        6.035319   1.000005
   84        6.079955   1.000020
   85        6.137800   1.000107
   86        6.180333   1.000331
   87        6.250269   1.001693
   88        6.285245   1.003440
   89        6.320271   1.006488
   90        6.349934   1.010429
   91        6.384406   1.016743
   92        6.424248   1.025696
   93        6.450035   1.031242
   94        6.490292   1.035436
   95        6.494487   1.035284
   96        6.574183   0.988349
   97        6.621332   0.900124
   98        6.659320   0.789114
   99        6.693309   0.663820
  100        6.706017   0.612497
  101        6.746664   0.441787
  102        6.797605   0.241345
  103        6.803326   0.221394
  104        6.884176   0.021925
  105        6.893839   0.008723
  106        6.968919  -0.035134
  107        7.020496  -0.030299
  108        7.050520  -0.023609
  109        7.074420  -0.018211
  110        7.145953  -0.006435
  111        7.186087  -0.003087
  112        7.232635  -0.001164
  113        7.520086  -0.000000
  114        7.642742  -0.000000
  115        7.665431  -0.000000
  116        7.803958  -0.000000
  117        7.889575  -0.000000
  118        7.909040  -0.000000
  119        8.031528  -0.000000
  120        8.149150  -0.000000
 
  0.0000000E+00  0.2000000E+00  0.0000000E+00  0.1600000E-01
    1      -47.227326   1.000000
    2      -47.205203   1.000000
    3      -47.159825   1.000000
    4      -47.104456   1.000000
    5      -47.070097   1.000000
    6      -46.975078   1.000000
    7      -24.003658   1.000000
    8      -23.837956   1.000000
    9      -23.673608   1.000000
   10      -23.630652   1.000000
   11      -23.400041   1.000000
   12      -23.392502   1.000000
   13      -23.386556   1.000000
   14      -23.336031   1.000000
   15      -23.318417   1.000000
   16      -23.298987   1.000000
   17      -23.267602   1.000000
   18      -23.224800   1.000000
   19      -23.188411   1.000000
   20      -23.165267   1.000000
   21      -23.020376   1.000000
   22      -23.002819   1.000000
   23      -22.843133   1.000000
   24      -22.610466   1.000000
   25        0.045719   1.000000
   26        1.293121   1.000000
   27        1.709567   1.000000
   28        1.928922   1.000000
   29        2.478804   1.000000
   30        2.620979   1.000000
   31        2.694701   1.000000
   32        2.795586   1.000000
   33        2.822535   1.000000
   34        2.907911   1.000000
   35        3.008880   1.000000
   36        3.062558   1.000000
   37        3.102384   1.000000
   38        3.142988   1.000000
   39        3.199542   1.000000
   40        3.245122   1.000000
   41        3.416891   1.000000
   42        3.471737   1.000000
   43        3.562260   1.000000
   44        3.630504   1.000000
   45        3.728431   1.000000
   46        3.818643   1.000000
   47        3.846857   1.000000
   48        3.944243   1.000000
   49        3.987383   1.000000
   50        4.079291   1.000000
   51        4.151319   1.000000
   52        4.217625   1.000000
   53        4.245088   1.000000
   54        4.307736   1.000000
   55        4.381809   1.000000
   56        4.463166   1.000000
   57        4.557299   1.000000
   58        4.721012   1.000000
   59        4.801016   1.000000
   60        4.866913   1.000000
   61        4.906727   1.000000
   62        5.020206   1.000000
   63        5.055382   1.000000
   64        5.104387   1.000000
   65        5.153942   1.000000
   66        5.187296   1.000000
   67        5.248250   1.000000
   68        5.298290   1.000000
   69        5.325062   1.000000
   70        5.354218   1.000000
   71        5.409946   1.000000
   72        5.438387   1.000000
   73        5.478494   1.000000
   74        5.541530   1.000000
   75        5.581334   1.000000
   76        5.614856   1.000000
   77        5.662339   1.000000
   78        5.688923   1.000000
   79        5.799263   1.000000
   80        5.837221   1.000000
   81        6.048704   1.000007
   82        6.071809   1.000015
   83        6.150870   1.000153
   84        6.178900   1.000319
   85        6.219919   1.000863
   86        6.229760   1.001080
   87        6.262980   1.002209
   88        6.312657   1.005690
   89        6.356719   1.011526
   90        6.374450   1.014737
   91        6.416629   1.023936
   92        6.447116   1.030674
   93        6.486122   1.035446
   94        6.525961   1.028351
   95        6.578702   0.982207
   96        6.592367   0.960749
   97        6.661853   0.780526
   98        6.720669   0.551523
   99        6.773375   0.332445
  100        7.059913  -0.021446
  101        7.091341  -0.014727
  102        7.113156  -0.010849
  103        7.210277  -0.001890
  104        7.263783  -0.000565
  105        7.393328  -0.000016
  106        7.430241  -0.000005
  107        7.565368  -0.000000
  108        7.725106  -0.000000
  109        7.780977  -0.000000
  110        7.862106  -0.000000
  111        7.961592  -0.000000
  112        8.058854  -0.000000
  113        8.190026  -0.000000
  114        8.373575  -0.000000
  115        8.449700  -0.000000
  116        8.581094  -0.000000
  117        8.608244  -0.000000
  118        8.667585  -0.000000
  119        8.704435  -0.000000
  120        8.766456  -0.000000
 
  0.2000000E+00  0.2000000E+00 -0.4857226E-16  0.1600000E-01
    1      -47.224365   1.000000
    2      -47.199502   1.000000
    3      -47.157147   1.000000
    4      -47.102784   1.000000
    5      -47.069323   1.000000
    6      -46.988183   1.000000
    7      -23.903281   1.000000
    8      -23.828113   1.000000
    9      -23.674321   1.000000
   10      -23.626062   1.000000
   11      -23.397570   1.000000
   12      -23.394442   1.000000
   13      -23.385035   1.000000
   14      -23.338464   1.000000
   15      -23.317285   1.000000
   16      -23.304160   1.000000
   17      -23.270132   1.000000
   18      -23.228831   1.000000
   19      -23.198872   1.000000
   20      -23.167989   1.000000
   21      -23.022135   1.000000
   22      -22.999698   1.000000
   23      -22.844742   1.000000
   24      -22.743253   1.000000
   25        0.234937   1.000000
   26        1.467859   1.000000
   27        1.883838   1.000000
   28        2.404662   1.000000
   29        2.651210   1.000000
   30        2.800447   1.000000
   31        2.815270   1.000000
   32        2.892371   1.000000
   33        2.954365   1.000000
   34        3.045065   1.000000
   35        3.102811   1.000000
   36        3.201507   1.000000
   37        3.290060   1.000000
   38        3.353255   1.000000
   39        3.393248   1.000000
   40        3.452259   1.000000
   41        3.498818   1.000000
   42        3.503154   1.000000
   43        3.705046   1.000000
   44        3.743424   1.000000
   45        3.805468   1.000000
   46        3.885291   1.000000
   47        3.932956   1.000000
   48        4.020180   1.000000
   49        4.135880   1.000000
   50        4.183843   1.000000
   51        4.216268   1.000000
   52        4.309054   1.000000
   53        4.376531   1.000000
   54        4.447155   1.000000
   55        4.512142   1.000000
   56        4.563801   1.000000
   57        4.680846   1.000000
   58        4.758581   1.000000
   59        4.827182   1.000000
   60        4.911246   1.000000
   61        4.962400   1.000000
   62        4.987287   1.000000
   63        5.079008   1.000000
   64        5.098694   1.000000
   65        5.135624   1.000000
   66        5.223083   1.000000
   67        5.257104   1.000000
   68        5.299015   1.000000
   69        5.338468   1.000000
   70        5.365447   1.000000
   71        5.401365   1.000000
   72        5.418818   1.000000
   73        5.449362   1.000000
   74        5.508005   1.000000
   75        5.537238   1.000000
   76        5.602928   1.000000
   77        5.691429   1.000000
   78        5.712789   1.000000
   79        5.799178   1.000000
   80        5.860985   1.000000
   81        5.917914   1.000000
   82        5.983735   1.000001
   83        6.054074   1.000009
   84        6.069201   1.000014
   85        6.128734   1.000083
   86        6.187219   1.000393
   87        6.233649   1.001178
   88        6.320024   1.006461
   89        6.350788   1.010563
   90        6.386025   1.017082
   91        6.419511   1.024603
   92        6.449725   1.031183
   93        6.488641   1.035456
   94        6.517037   1.031512
   95        6.608928   0.928662
   96        6.673373   0.739827
   97        6.709842   0.596730
   98        6.807776   0.206346
   99        6.851956   0.082047
  100        6.904020  -0.002967
  101        6.956545  -0.033452
  102        7.017239  -0.030947
  103        7.083530  -0.016289
  104        7.103373  -0.012496
  105        7.148645  -0.006145
  106        7.234660  -0.001112
  107        7.289723  -0.000296
  108        7.340081  -0.000076
  109        7.408680  -0.000010
  110        7.460220  -0.000002
  111        7.513942  -0.000000
  112        7.940000  -0.000000
  113        8.217369  -0.000000
  114        8.324855  -0.000000
  115        8.402038  -0.000000
  116        8.435578  -0.000000
  117        8.595526  -0.000000
  118        8.660038  -0.000000
  119        8.700064  -0.000000
  120        8.764840  -0.000000
 
  0.4000000E+00  0.2000000E+00 -0.6938894E-16  0.1600000E-01
    1      -47.221066   1.000000
    2      -47.188703   1.000000
    3      -47.149544   1.000000
    4      -47.098828   1.000000
    5      -47.067261   1.000000
    6      -47.014798   1.000000
    7      -23.852359   1.000000
    8      -23.697822   1.000000
    9      -23.646470   1.000000
   10      -23.515581   1.000000
   11      -23.405353   1.000000
   12      -23.398257   1.000000
   13      -23.370687   1.000000
   14      -23.340634   1.000000
   15      -23.316806   1.000000
   16      -23.305031   1.000000
   17      -23.274735   1.000000
   18      -23.237657   1.000000
   19      -23.221524   1.000000
   20      -23.173908   1.000000
   21      -23.108467   1.000000
   22      -23.020723   1.000000
   23      -22.992328   1.000000
   24      -22.838799   1.000000
   25        0.984447   1.000000
   26        1.972719   1.000000
   27        2.323838   1.000000
   28        2.520971   1.000000
   29        2.647113   1.000000
   30        2.784607   1.000000
   31        3.072816   1.000000
   32        3.272242   1.000000
   33        3.393486   1.000000
   34        3.435249   1.000000
   35        3.505685   1.000000
   36        3.549702   1.000000
   37        3.591864   1.000000
   38        3.663382   1.000000
   39        3.686798   1.000000
   40        3.765866   1.000000
   41        3.829889   1.000000
   42        3.848711   1.000000
   43        3.941898   1.000000
   44        3.987503   1.000000
   45        4.006566   1.000000
   46        4.054107   1.000000
   47        4.126104   1.000000
   48        4.201048   1.000000
   49        4.272161   1.000000
   50        4.341904   1.000000
   51        4.395723   1.000000
   52        4.466064   1.000000
   53        4.516364   1.000000
   54        4.549631   1.000000
   55        4.621051   1.000000
   56        4.672827   1.000000
   57        4.729503   1.000000
   58        4.815559   1.000000
   59        4.889012   1.000000
   60        5.008316   1.000000
   61        5.038214   1.000000
   62        5.057384   1.000000
   63        5.122943   1.000000
   64        5.178393   1.000000
   65        5.213141   1.000000
   66        5.270506   1.000000
   67        5.295577   1.000000
   68        5.354043   1.000000
   69        5.382610   1.000000
   70        5.434816   1.000000
   71        5.488742   1.000000
   72        5.499836   1.000000
   73        5.544369   1.000000
   74        5.595773   1.000000
   75        5.635621   1.000000
   76        5.679879   1.000000
   77        5.709122   1.000000
   78        5.803854   1.000000
   79        5.839759   1.000000
   80        5.910933   1.000000
   81        5.938904   1.000000
   82        6.007907   1.000002
   83        6.059893   1.000011
   84        6.082094   1.000021
   85        6.102106   1.000039
   86        6.141050   1.000117
   87        6.214208   1.000756
   88        6.233936   1.001186
   89        6.279473   1.003076
   90        6.318250   1.006268
   91        6.345078   1.009689
   92        6.390030   1.017933
   93        6.414676   1.023484
   94        6.447697   1.030789
   95        6.482027   1.035329
   96        6.507729   1.033735
   97        6.556962   1.007692
   98        6.588729   0.966894
   99        6.617629   0.909051
  100        6.646513   0.830366
  101        6.683728   0.701142
  102        6.747546   0.438085
  103        6.800023   0.232832
  104        6.828243   0.142874
  105        6.886018   0.019244
  106        6.895172   0.007066
  107        7.017320  -0.030931
  108        7.124874  -0.009078
  109        7.168063  -0.004347
  110        7.258527  -0.000641
  111        7.332168  -0.000095
  112        7.685983  -0.000000
  113        7.809082  -0.000000
  114        7.874830  -0.000000
  115        7.960202  -0.000000
  116        8.078757  -0.000000
  117        8.144250  -0.000000
  118        8.204863  -0.000000
  119        8.264304  -0.000000
  120        8.309451  -0.000000
 
 -0.4000000E+00  0.2000000E+00  0.0000000E+00  0.1600000E-01
    1      -47.220724   1.000000
    2      -47.188442   1.000000
    3      -47.149603   1.000000
    4      -47.099238   1.000000
    5      -47.067397   1.000000
    6      -47.014793   1.000000
    7      -23.850704   1.000000
    8      -23.694051   1.000000
    9      -23.641458   1.000000
   10      -23.515622   1.000000
   11      -23.405431   1.000000
   12      -23.398334   1.000000
   13      -23.370829   1.000000
   14      -23.340656   1.000000
   15      -23.316709   1.000000
   16      -23.305141   1.000000
   17      -23.274623   1.000000
   18      -23.237627   1.000000
   19      -23.221593   1.000000
   20      -23.173979   1.000000
   21      -23.108493   1.000000
   22      -23.029411   1.000000
   23      -22.995168   1.000000
   24      -22.839309   1.000000
   25        1.348059   1.000000
   26        2.021174   1.000000
   27        2.145382   1.000000
   28        2.436822   1.000000
   29        2.706392   1.000000
   30        2.935498   1.000000
   31        3.035192   1.000000
   32        3.130884   1.000000
   33        3.358763   1.000000
   34        3.391145   1.000000
   35        3.456375   1.000000
   36        3.479027   1.000000
   37        3.530823   1.000000
   38        3.614450   1.000000
   39        3.681493   1.000000
   40        3.751268   1.000000
   41        3.788295   1.000000
   42        3.835977   1.000000
   43        3.909706   1.000000
   44        3.950482   1.000000
   45        4.031207   1.000000
   46        4.133722   1.000000
   47        4.170187   1.000000
   48        4.276433   1.000000
   49        4.342541   1.000000
   50        4.398121   1.000000
   51        4.433306   1.000000
   52        4.482325   1.000000
   53        4.549977   1.000000
   54        4.657132   1.000000
   55        4.745525   1.000000
   56        4.826934   1.000000
   57        4.880261   1.000000
   58        4.912084   1.000000
   59        4.925756   1.000000
   60        4.969744   1.000000
   61        4.984661   1.000000
   62        5.066660   1.000000
   63        5.080482   1.000000
   64        5.144312   1.000000
   65        5.193137   1.000000
   66        5.247438   1.000000
   67        5.299347   1.000000
   68        5.342296   1.000000
   69        5.377729   1.000000
   70        5.394004   1.000000
   71        5.408390   1.000000
   72        5.512997   1.000000
   73        5.539429   1.000000
   74        5.592309   1.000000
   75        5.659494   1.000000
   76        5.669569   1.000000
   77        5.726448   1.000000
   78        5.754883   1.000000
   79        5.840581   1.000000
   80        5.893352   1.000000
   81        5.915932   1.000000
   82        5.971676   1.000001
   83        5.997812   1.000001
   84        6.063794   1.000012
   85        6.157206   1.000181
   86        6.195098   1.000478
   87        6.238468   1.001311
   88        6.280758   1.003154
   89        6.324087   1.006919
   90        6.363422   1.012683
   91        6.412609   1.023005
   92        6.431776   1.027407
   93        6.457262   1.032544
   94        6.492904   1.035359
   95        6.533920   1.024574
   96        6.585509   0.972070
   97        6.622385   0.897522
   98        6.672076   0.744541
   99        6.697714   0.646242
  100        6.718507   0.560603
  101        6.747651   0.437648
  102        6.781424   0.301113
  103        6.806220   0.211562
  104        6.857462   0.069949
  105        6.887973   0.016485
  106        6.928684  -0.022816
  107        6.967339  -0.035004
  108        6.988901  -0.035019
  109        7.096243  -0.013792
  110        7.151196  -0.005880
  111        7.289883  -0.000295
  112        7.320016  -0.000133
  113        7.348599  -0.000060
  114        7.467039  -0.000001
  115        7.743670  -0.000000
  116        7.923375  -0.000000
  117        8.145325  -0.000000
  118        8.157261  -0.000000
  119        8.214193  -0.000000
  120        8.250273  -0.000000
 
 -0.2000000E+00  0.2000000E+00  0.6591949E-16  0.1600000E-01
    1      -47.223937   1.000000
    2      -47.199026   1.000000
    3      -47.157130   1.000000
    4      -47.103439   1.000000
    5      -47.069593   1.000000
    6      -46.988175   1.000000
    7      -23.902976   1.000000
    8      -23.825061   1.000000
    9      -23.663117   1.000000
   10      -23.623871   1.000000
   11      -23.397597   1.000000
   12      -23.394714   1.000000
   13      -23.385270   1.000000
   14      -23.338478   1.000000
   15      -23.317359   1.000000
   16      -23.304130   1.000000
   17      -23.269946   1.000000
   18      -23.228685   1.000000
   19      -23.199020   1.000000
   20      -23.168162   1.000000
   21      -23.029788   1.000000
   22      -23.010451   1.000000
   23      -22.845695   1.000000
   24      -22.743284   1.000000
   25        0.474440   1.000000
   26        1.615853   1.000000
   27        1.867900   1.000000
   28        2.061226   1.000000
   29        2.612950   1.000000
   30        2.853717   1.000000
   31        2.943175   1.000000
   32        3.017963   1.000000
   33        3.026486   1.000000
   34        3.071348   1.000000
   35        3.208345   1.000000
   36        3.247332   1.000000
   37        3.297648   1.000000
   38        3.341072   1.000000
   39        3.371246   1.000000
   40        3.420036   1.000000
   41        3.469701   1.000000
   42        3.542251   1.000000
   43        3.645687   1.000000
   44        3.710371   1.000000
   45        3.789299   1.000000
   46        3.861368   1.000000
   47        3.930625   1.000000