 vasp.5.4.4.18Apr17-6-g9f103f2a35 (build Aug 09 2018 16:20:53) complex          
  
 executed on             LinuxIFC date 2020.04.28  21:06:14
 running on   32 total cores
 distrk:  each k-point on   32 cores,    1 groups
 distr:  one band on NCORES_PER_BAND=   4 cores,    8 groups


--------------------------------------------------------------------------------------------------------


 INCAR:
 POTCAR:    PAW_PBE Nb_sv 25May2007               
 POTCAR:    PAW_PBE Mo 08Apr2002                  
 POTCAR:    PAW_PBE Ta 17Jan2003                  
 POTCAR:    PAW_PBE Ti 08Apr2002                  
 POTCAR:    PAW_PBE V 08Apr2002                   
 POTCAR:    PAW_PBE Nb_sv 25May2007               
   VRHFIN =Nb: 4p5s4d                                                           
   LEXCH  = PE                                                                  
   EATOM  =  1555.1913 eV,  114.3033 Ry                                         
                                                                                
   TITEL  = PAW_PBE Nb_sv 25May2007                                             
   LULTRA =        F    use ultrasoft PP ?                                      
   IUNSCR =        1    unscreen: 0-lin 1-nonlin 2-no                           
   RPACOR =    1.800    partial core radius                                     
   POMASS =   92.910; ZVAL   =   13.000    mass and valenz                      
   RCORE  =    2.400    outmost cutoff radius                                   
   RWIGS  =    2.400; RWIGS  =    1.270    wigner-seitz radius (au A)           
   ENMAX  =  293.235; ENMIN  =  219.927 eV                                      
   ICORE  =        3    local potential                                         
   LCOR   =        T    correct aug charges                                     
   LPAW   =        T    paw PP                                                  
   EAUG   =  455.659                                                            
   DEXC   =    0.000                                                            
   RMAX   =    2.456    core radius for proj-oper                               
   RAUG   =    1.300    factor for augmentation sphere                          
   RDEP   =    2.451    radius for radial grids                                 
   RDEPT  =    1.956    core radius for aug-charge                              
                                                                                
   Atomic configuration                                                         
   11 entries                                                                   
     n  l   j            E        occ.                                          
     1  0  0.50    -18805.2457   2.0000                                         
     2  0  0.50     -2630.2869   2.0000                                         
     2  1  1.50     -2348.4046   6.0000                                         
     3  0  0.50      -438.8757   2.0000                                         
     3  1  1.50      -346.7588   6.0000                                         
     3  2  2.50      -196.2560  10.0000                                         
     4  0  0.50       -58.3859   2.0000                                         
     5  0  0.50        -3.9816   1.0000                                         
     4  1  1.50       -34.5141   6.0000                                         
     4  2  2.50        -3.0408   4.0000                                         
     4  3  2.50        -1.3606   0.0000                                         
   Description                                                                  
     l       E           TYP  RCUT    TYP  RCUT                                 
     0    -58.3859094     23  2.200                                             
     0     -3.9816262     23  2.200                                             
     1    -34.5140738     23  2.200                                             
     1     13.6058260     23  2.200                                             
     2     -3.0408010     23  2.200                                             
     2     -0.1283038     23  2.200                                             
     3     -1.3605826     23  2.400                                             
  local pseudopotential read in
  partial core-charges read in
  partial kinetic energy density read in
  atomic valenz-charges read in
  non local Contribution for L=           0  read in
    real space projection operators read in
  non local Contribution for L=           0  read in
    real space projection operators read in
  non local Contribution for L=           1  read in
    real space projection operators read in
  non local Contribution for L=           1  read in
    real space projection operators read in
  non local Contribution for L=           2  read in
    real space projection operators read in
  non local Contribution for L=           2  read in
    real space projection operators read in
    PAW grid and wavefunctions read in
 
   number of l-projection  operators is LMAX  =           6
   number of lm-projection operators is LMMAX =          18
 
 POTCAR:    PAW_PBE Mo 08Apr2002                  
   VRHFIN =Mo: 4p5s4d                                                           
   LEXCH  = PE                                                                  
   EATOM  =   217.5176 eV,   15.9871 Ry                                         
                                                                                
   TITEL  = PAW_PBE Mo 08Apr2002                                                
   LULTRA =        F    use ultrasoft PP ?                                      
   IUNSCR =        1    unscreen: 0-lin 1-nonlin 2-no                           
   RPACOR =    2.200    partial core radius                                     
   POMASS =   95.940; ZVAL   =    6.000    mass and valenz                      
   RCORE  =    2.750    outmost cutoff radius                                   
   RWIGS  =    2.750; RWIGS  =    1.455    wigner-seitz radius (au A)           
   ENMAX  =  224.584; ENMIN  =  168.438 eV                                      
   RCLOC  =    2.111    cutoff for local pot                                    
   LCOR   =        T    correct aug charges                                     
   LPAW   =        T    paw PP                                                  
   EAUG   =  345.278                                                            
   DEXC   =    0.000                                                            
   RMAX   =    2.821    core radius for proj-oper                               
   RAUG   =    1.300    factor for augmentation sphere                          
   RDEP   =    2.815    radius for radial grids                                 
   RDEPT  =    2.211    core radius for aug-charge                              
                                                                                
   Atomic configuration                                                         
   12 entries                                                                   
     n  l   j            E        occ.                                          
     1  0  0.50    -19819.0341   2.0000                                         
     2  0  0.50     -2799.0127   2.0000                                         
     2  1  1.50     -2502.0276   6.0000                                         
     3  0  0.50      -476.4448   2.0000                                         
     3  1  1.50      -379.1496   6.0000                                         
     3  2  2.50      -220.9367  10.0000                                         
     4  0  0.50       -64.3378   2.0000                                         
     4  1  1.50       -38.4773   6.0000                                         
     4  2  2.50        -3.7535   5.0000                                         
     5  0  0.50        -4.0862   1.0000                                         
     5  1  0.50        -2.7701   0.0000                                         
     4  3  2.50        -1.3606   0.0000                                         
   Description                                                                  
     l       E           TYP  RCUT    TYP  RCUT                                 
     2     -3.7534765     23  2.500                                             
     2     -5.1140591     23  2.500                                             
     0     -4.0861560     23  2.600                                             
     0     13.6058260     23  2.600                                             
     1      5.4423304     23  2.750                                             
     1     27.2116520     23  2.750                                             
  local pseudopotential read in
  partial core-charges read in
  partial kinetic energy density read in
  atomic valenz-charges read in
  non local Contribution for L=           2  read in
    real space projection operators read in
  non local Contribution for L=           2  read in
    real space projection operators read in
  non local Contribution for L=           0  read in
    real space projection operators read in
  non local Contribution for L=           0  read in
    real space projection operators read in
  non local Contribution for L=           1  read in
    real space projection operators read in
  non local Contribution for L=           1  read in
    real space projection operators read in
    PAW grid and wavefunctions read in
 
   number of l-projection  operators is LMAX  =           6
   number of lm-projection operators is LMMAX =          18
 
 POTCAR:    PAW_PBE Ta 17Jan2003                  
   VRHFIN =Ta:  6s5d                                                            
   LEXCH  = PE                                                                  
   EATOM  =   130.6506 eV,    9.6025 Ry                                         
                                                                                
   TITEL  = PAW_PBE Ta 17Jan2003                                                
   LULTRA =        F    use ultrasoft PP ?                                      
   IUNSCR =        1    unscreen: 0-lin 1-nonlin 2-no                           
   RPACOR =    2.330    partial core radius                                     
   POMASS =  180.948; ZVAL   =    5.000    mass and valenz                      
   RCORE  =    2.900    outmost cutoff radius                                   
   RWIGS  =    2.840; RWIGS  =    1.503    wigner-seitz radius (au A)           
   ENMAX  =  223.667; ENMIN  =  167.750 eV                                      
   RCLOC  =    2.205    cutoff for local pot                                    
   LCOR   =        T    correct aug charges                                     
   LPAW   =        T    paw PP                                                  
   EAUG   =  332.075                                                            
   DEXC   =    0.000                                                            
   RMAX   =    2.970    core radius for proj-oper                               
   RAUG   =    1.300    factor for augmentation sphere                          
   RDEP   =    3.060    radius for radial grids                                 
   RDEPT  =    2.354    core radius for aug-charge                              
                                                                                
   Atomic configuration                                                         
   16 entries                                                                   
     n  l   j            E        occ.                                          
     1  0  0.50    -67341.2807   2.0000                                         
     2  0  0.50    -11566.9376   2.0000                                         
     2  1  1.50    -10134.1182   6.0000                                         
     3  0  0.50     -2648.5620   2.0000                                         
     3  1  1.50     -2222.6012   6.0000                                         
     3  2  2.50     -1726.3120  10.0000                                         
     4  0  0.50      -538.6961   2.0000                                         
     4  1  1.50      -399.0129   6.0000                                         
     4  2  2.50      -220.3959  10.0000                                         
     4  3  3.50       -23.0374  14.0000                                         
     5  0  0.50       -71.2901   2.0000                                         
     5  1  1.50       -37.8225   6.0000                                         
     5  2  2.50        -2.6455   4.0000                                         
     6  0  0.50        -4.9623   1.0000                                         
     6  1  1.50        -1.3606   0.0000                                         
     5  3  2.50        -1.3606   0.0000                                         
   Description                                                                  
     l       E           TYP  RCUT    TYP  RCUT                                 
     2     -2.6455043     23  2.500                                             
     2     -0.6258895     23  2.500                                             
     0     -4.9622780     23  2.500                                             
     0      4.7531321     23  2.500                                             
     1     -1.3605826     23  2.900                                             
     1     27.2116520     23  2.900                                             
  local pseudopotential read in
  partial core-charges read in
  partial kinetic energy density read in
  atomic valenz-charges read in
  non local Contribution for L=           2  read in
    real space projection operators read in
  non local Contribution for L=           2  read in
    real space projection operators read in
  non local Contribution for L=           0  read in
    real space projection operators read in
  non local Contribution for L=           0  read in
    real space projection operators read in
  non local Contribution for L=           1  read in
    real space projection operators read in
  non local Contribution for L=           1  read in
    real space projection operators read in
    PAW grid and wavefunctions read in
 
   number of l-projection  operators is LMAX  =           6
   number of lm-projection operators is LMMAX =          18
 
 POTCAR:    PAW_PBE Ti 08Apr2002                  
   VRHFIN =Ti: d3 s1                                                            
   LEXCH  = PE                                                                  
   EATOM  =    94.7928 eV,    6.9671 Ry                                         
                                                                                
   TITEL  = PAW_PBE Ti 08Apr2002                                                
   LULTRA =        F    use ultrasoft PP ?                                      
   IUNSCR =        1    unscreen: 0-lin 1-nonlin 2-no                           
   RPACOR =    2.200    partial core radius                                     
   POMASS =   47.880; ZVAL   =    4.000    mass and valenz                      
   RCORE  =    2.800    outmost cutoff radius                                   
   RWIGS  =    2.500; RWIGS  =    1.323    wigner-seitz radius (au A)           
   ENMAX  =  178.330; ENMIN  =  133.747 eV                                      
   RCLOC  =    2.215    cutoff for local pot                                    
   LCOR   =        T    correct aug charges                                     
   LPAW   =        T    paw PP                                                  
   EAUG   =  328.883                                                            
   DEXC   =    0.000                                                            
   RMAX   =    2.868    core radius for proj-oper                               
   RAUG   =    1.300    factor for augmentation sphere                          
   RDEP   =    2.885    radius for radial grids                                 
   RDEPT  =    2.320    core radius for aug-charge                              
                                                                                
   Atomic configuration                                                         
    9 entries                                                                   
     n  l   j            E        occ.                                          
     1  0  0.50     -4865.3608   2.0000                                         
     2  0  0.50      -533.1367   2.0000                                         
     2  1  1.50      -440.5031   6.0000                                         
     3  0  0.50       -59.3186   2.0000                                         
     3  1  1.50       -35.7012   6.0000                                         
     3  2  2.50        -1.9157   3.0000                                         
     4  0  0.50        -3.7291   1.0000                                         
     4  1  1.50        -4.0817   0.0000                                         
     4  3  2.50        -1.3606   0.0000                                         
   Description                                                                  
     l       E           TYP  RCUT    TYP  RCUT                                 
     2     -1.9156924     23  2.800                                             
     2     -0.4062961     23  2.800                                             
     0     -3.7290832     23  2.800                                             
     0     20.4087390     23  2.800                                             
     1     -5.4423304     23  2.800                                             
  local pseudopotential read in
  partial core-charges read in
  partial kinetic energy density read in
  atomic valenz-charges read in
  non local Contribution for L=           2  read in
    real space projection operators read in
  non local Contribution for L=           2  read in
    real space projection operators read in
  non local Contribution for L=           0  read in
    real space projection operators read in
  non local Contribution for L=           0  read in
    real space projection operators read in
  non local Contribution for L=           1  read in
    real space projection operators read in
    PAW grid and wavefunctions read in
 
   number of l-projection  operators is LMAX  =           5
   number of lm-projection operators is LMMAX =          15
 
 POTCAR:    PAW_PBE V 08Apr2002                   
   VRHFIN =V: p6 d4 s1                                                          
   LEXCH  = PE                                                                  
   EATOM  =   170.8679 eV,   12.5584 Ry                                         
                                                                                
   TITEL  = PAW_PBE V 08Apr2002                                                 
   LULTRA =        F    use ultrasoft PP ?                                      
   IUNSCR =        1    unscreen: 0-lin 1-nonlin 2-no                           
   RPACOR =    2.000    partial core radius                                     
   POMASS =   50.941; ZVAL   =    5.000    mass and valenz                      
   RCORE  =    2.700    outmost cutoff radius                                   
   RWIGS  =    2.500; RWIGS  =    1.323    wigner-seitz radius (au A)           
   ENMAX  =  192.543; ENMIN  =  144.408 eV                                      
   RCLOC  =    1.779    cutoff for local pot                                    
   LCOR   =        T    correct aug charges                                     
   LPAW   =        T    paw PP                                                  
   EAUG   =  358.662                                                            
   DEXC   =    0.000                                                            
   RMAX   =    2.768    core radius for proj-oper                               
   RAUG   =    1.300    factor for augmentation sphere                          
   RDEP   =    2.762    radius for radial grids                                 
   RDEPT  =    2.240    core radius for aug-charge                              
                                                                                
   Atomic configuration                                                         
    9 entries                                                                   
     n  l   j            E        occ.                                          
     1  0  0.50     -5360.7193   2.0000                                         
     2  0  0.50      -598.4546   2.0000                                         
     2  1  1.50      -499.0155   6.0000                                         
     3  0  0.50       -66.5711   2.0000                                         
     3  1  1.50       -40.5282   6.0000                                         
     3  2  2.50        -2.4291   4.0000                                         
     4  0  0.50        -3.8743   1.0000                                         
     4  1  0.50        -2.7212   0.0000                                         
     4  3  2.50        -1.3606   0.0000                                         
   Description                                                                  
     l       E           TYP  RCUT    TYP  RCUT                                 
     2     -2.4290901     23  2.700                                             
     2     -3.7896727     23  2.700                                             
     0     -3.8742752     23  2.700                                             
     0     27.2116520     23  2.700                                             
     1     -2.7211652     23  2.700                                             
     1     27.2116520     23  2.700                                             
  local pseudopotential read in
  partial core-charges read in
  partial kinetic energy density read in
  atomic valenz-charges read in
  non local Contribution for L=           2  read in
    real space projection operators read in
  non local Contribution for L=           2  read in
    real space projection operators read in
  non local Contribution for L=           0  read in
    real space projection operators read in
  non local Contribution for L=           0  read in
    real space projection operators read in
  non local Contribution for L=           1  read in
    real space projection operators read in
  non local Contribution for L=           1  read in
    real space projection operators read in
    PAW grid and wavefunctions read in
 
   number of l-projection  operators is LMAX  =           6
   number of lm-projection operators is LMMAX =          18
 
 Optimization of the real space projectors (new method)

 maximal supplied QI-value         = 15.68
 optimisation between [QCUT,QGAM] = [ 12.55, 25.10] = [ 44.09,176.36] Ry 
 Optimized for a Real-space Cutoff    1.56 Angstroem

   l    n(q)    QCUT    max X(q) W(low)/X(q) W(high)/X(q)  e(spline) 
   0     12    12.548    10.201    0.21E-04    0.36E-05    0.83E-07
   0     12    12.548     8.174    0.31E-04    0.62E-05    0.15E-06
   1     11    12.548     3.488    0.79E-05    0.23E-04    0.21E-06
   1     11    12.548     4.917    0.56E-04    0.13E-03    0.11E-05
   2     11    12.548   153.744    0.25E-03    0.10E-03    0.15E-05
   2     11    12.548   126.342    0.25E-03    0.10E-03    0.15E-05
 Optimization of the real space projectors (new method)

 maximal supplied QI-value         = 13.61
 optimisation between [QCUT,QGAM] = [ 12.52, 25.04] = [ 43.88,175.51] Ry 
 Optimized for a Real-space Cutoff    1.56 Angstroem

   l    n(q)    QCUT    max X(q) W(low)/X(q) W(high)/X(q)  e(spline) 
   2     11    12.518    80.908    0.42E-03    0.30E-03    0.14E-05
   2     11    12.518    79.000    0.42E-03    0.30E-03    0.14E-05
   0     12    12.518    52.066    0.58E-04    0.50E-04    0.55E-06
   0     12    12.518    24.514    0.48E-04    0.41E-04    0.46E-06
   1     11    12.518    16.033    0.62E-04    0.13E-03    0.37E-06
   1     11    12.518    11.179    0.47E-04    0.10E-03    0.31E-06
 Optimization of the real space projectors (new method)

 maximal supplied QI-value         = 12.85
 optimisation between [QCUT,QGAM] = [ 12.46, 25.06] = [ 43.51,175.83] Ry 
 Optimized for a Real-space Cutoff    1.56 Angstroem

   l    n(q)    QCUT    max X(q) W(low)/X(q) W(high)/X(q)  e(spline) 
   2     11    12.465    62.315    0.36E-03    0.20E-03    0.15E-05
   2     11    12.465    52.185    0.36E-03    0.20E-03    0.15E-05
   0     12    12.465   103.837    0.22E-04    0.37E-05    0.56E-06
   0     12    12.465    59.728    0.20E-04    0.34E-05    0.51E-06
   1     11    12.465    13.958    0.44E-03    0.81E-03    0.81E-05
   1     11    12.465     8.441    0.31E-03    0.56E-03    0.56E-05
 Optimization of the real space projectors (new method)

 maximal supplied QI-value         = 13.42
 optimisation between [QCUT,QGAM] = [ 12.48, 25.09] = [ 43.60,176.28] Ry 
 Optimized for a Real-space Cutoff    1.56 Angstroem

   l    n(q)    QCUT    max X(q) W(low)/X(q) W(high)/X(q)  e(spline) 
   2     11    12.478    49.363    0.45E-03    0.34E-03    0.89E-06
   2     11    12.478    47.669    0.44E-03    0.33E-03    0.87E-06
   0     12    12.478    26.374    0.17E-03    0.37E-04    0.21E-05
   0     12    12.478    11.549    0.13E-03    0.31E-04    0.17E-05
   1     11    12.478     9.492    0.91E-05    0.64E-04    0.34E-06
 Optimization of the real space projectors (new method)

 maximal supplied QI-value         = 13.98
 optimisation between [QCUT,QGAM] = [ 12.45, 25.03] = [ 43.38,175.46] Ry 
 Optimized for a Real-space Cutoff    1.56 Angstroem

   l    n(q)    QCUT    max X(q) W(low)/X(q) W(high)/X(q)  e(spline) 
   2     11    12.446    96.114    0.19E-03    0.47E-04    0.85E-06
   2     11    12.446    88.986    0.19E-03    0.46E-04    0.86E-06
   0     12    12.446    20.919    0.37E-04    0.64E-04    0.43E-06
   0     12    12.446     9.593    0.25E-04    0.48E-04    0.33E-06
   1     11    12.446    11.615    0.75E-04    0.30E-04    0.59E-06
   1     11    12.446     7.031    0.53E-04    0.23E-04    0.40E-06

 ----------------------------------------------------------------------------- 
|                                                                             |
|  ADVICE TO THIS USER RUNNING 'VASP/VAMP'   (HEAR YOUR MASTER'S VOICE ...):  |
|                                                                             |
|      You enforced a specific xc-type in the INCAR file,                     |
|      a different type was found on the POTCAR file                          |
|          I HOPE YOU KNOW, WHAT YOU ARE  DOING                               |
|                                                                             |
 ----------------------------------------------------------------------------- 

  PAW_PBE Nb_sv 25May2007               :
 energy of atom  1       EATOM=-1555.1913
 kinetic energy error for atom=    0.0037 (will be added to EATOM!!)
  PAW_PBE Mo 08Apr2002                  :
 energy of atom  2       EATOM= -217.5176
 kinetic energy error for atom=    0.0005 (will be added to EATOM!!)
  PAW_PBE Ta 17Jan2003                  :
 energy of atom  3       EATOM= -130.6506
 kinetic energy error for atom=    0.0004 (will be added to EATOM!!)
  PAW_PBE Ti 08Apr2002                  :
 energy of atom  4       EATOM=  -94.7928
 kinetic energy error for atom=    0.0001 (will be added to EATOM!!)
  PAW_PBE V 08Apr2002                   :
 energy of atom  5       EATOM= -170.8679
 kinetic energy error for atom=    0.0002 (will be added to EATOM!!)
 
 
 POSCAR: Nb - Mo - Ta - Ti - V SQS-30 BCC        
  positions in direct lattice
  No initial velocities read in
 exchange correlation table for  LEXCH =       14
   RHO(1)=    0.500       N(1)  =     2000
   RHO(2)=  100.500       N(2)  =     4000

 VTST: version 3.2, (02/03/18)

 CHAIN: initializing optimizer
 
 OPT: Using VASP Conjugate-Gradient optimizer
 CHAIN: Read ICHAIN            0
 
 POSCAR: Nb - Mo - Ta - Ti - V SQS-30 BCC        
  positions in direct lattice
  No initial velocities read in
 


--------------------------------------------------------------------------------------------------------


 ion  position               nearest neighbor table
   1  0.967  0.933  0.400-  18 2.74   7 2.74  24 2.74  20 2.74  20 2.74  19 2.74   6 2.74   2 2.74
                            16 3.16   8 3.16  15 3.16  11 3.16  12 3.16
   2  0.633  0.267  0.400-  18 2.74  26 2.74   9 2.74  12 2.74  12 2.74  28 2.74  15 2.74   1 2.74
                             8 3.16
   3  0.500  0.000  0.000-  13 2.74  21 2.74  17 2.74  15 2.74   4 2.74   4 2.74  27 2.74  16 2.74
                            10 3.16  14 3.16   7 3.16
   4  0.000  0.000  0.000-  10 2.74  29 2.74  24 2.74  14 2.74   3 2.74   3 2.74   7 2.74   5 2.74
                            15 3.16  13 3.16  17 3.16  16 3.16
   5  0.100  0.200  0.800-  25 2.74  17 2.74   6 2.74  21 2.74  23 2.74  27 2.74  27 2.74   4 2.74
                            14 3.16  10 3.16
   6  0.033  0.067  0.600-  26 2.74   5 2.74  14 2.74  28 2.74  28 2.74  12 2.74   1 2.74  11 2.74
                            17 3.16
   7  0.900  0.800  0.200-  30 2.74  15 2.74   1 2.74  13 2.74   8 2.74  16 2.74  16 2.74   4 2.74
                            20 3.16   9 3.16  24 3.16  29 3.16  18 3.16   3 3.16
   8  0.800  0.600  0.400-  20 2.74  12 2.74   9 2.74  19 2.74   7 2.74  18 2.74  18 2.74  26 2.74
                            30 3.16   1 3.16  11 3.16   2 3.16  16 3.16  23 3.16
   9  0.733  0.467  0.200-  16 2.74   8 2.74   2 2.74  30 2.74  30 2.74  13 2.74  10 2.74  24 2.74
                             7 3.16  18 3.16  12 3.16  29 3.16  15 3.16  21 3.16
  10  0.667  0.333  0.000-   4 2.74  27 2.74  21 2.74  21 2.74  25 2.74  15 2.74   9 2.74  29 2.74
                             3 3.16   5 3.16  22 3.16  24 3.16  13 3.16  30 3.16
  11  0.367  0.733  0.600-  26 2.74  18 2.74  22 2.74  19 2.74  19 2.74  20 2.74  17 2.74   6 2.74
                             8 3.16  23 3.16  25 3.16   1 3.16  28 3.16  14 3.16
  12  0.133  0.267  0.400-   8 2.74  23 2.74  30 2.74   2 2.74   2 2.74   6 2.74  24 2.74  20 2.74
                            18 3.16  26 3.16   9 3.16  28 3.16  15 3.16   1 3.16
  13  0.833  0.667  0.000-   3 2.74   7 2.74  29 2.74  29 2.74   9 2.74  14 2.74  25 2.74  21 2.74
                             4 3.16  16 3.16  30 3.16  17 3.16  10 3.16  22 3.16
  14  0.933  0.867  0.800-  27 2.74   4 2.74   6 2.74  17 2.74  13 2.74  17 2.74  19 2.74  22 2.74
                             3 3.16   5 3.16  28 3.16  29 3.16  11 3.16  25 3.16
  15  0.567  0.133  0.200-   7 2.74   3 2.74  24 2.74  20 2.74  10 2.74  24 2.74   2 2.74  30 2.74
                             4 3.16  16 3.16   1 3.16  21 3.16  12 3.16   9 3.16
  16  0.400  0.800  0.200-   9 2.74  24 2.74  20 2.74  29 2.74  18 2.74   7 2.74   7 2.74   3 2.74
                             1 3.16  30 3.16  15 3.16  13 3.16   8 3.16   4 3.16
  17  0.433  0.867  0.800-   5 2.74   3 2.74  28 2.74  14 2.74  29 2.74  14 2.74  11 2.74  25 2.74
                            27 3.16   4 3.16   6 3.16  13 3.16  19 3.16  22 3.16
  18  0.300  0.600  0.400-   1 2.74   2 2.74  30 2.74  11 2.74  16 2.74   8 2.74   8 2.74  23 2.74
                            20 3.16   9 3.16  12 3.16  19 3.16   7 3.16  26 3.16
  19  0.867  0.733  0.600-  23 2.74   8 2.74  25 2.74  11 2.74  11 2.74   1 2.74  14 2.74  28 2.74
                            18 3.16  26 3.16  22 3.16  20 3.16  17 3.16
  20  0.467  0.933  0.400-   8 2.74  16 2.74  15 2.74   1 2.74   1 2.74  11 2.74  28 2.74  12 2.74
                             7 3.16  18 3.16  24 3.16  19 3.16
  21  0.167  0.333  0.000-   3 2.74   5 2.74  10 2.74  10 2.74  22 2.74  24 2.74  30 2.74  13 2.74
                            27 3.16  25 3.16  15 3.16  29 3.16   9 3.16
  22  0.267  0.533  0.800-  27 2.74  23 2.74  11 2.74  25 2.74  25 2.74  21 2.74  29 2.74  14 2.74
                            26 3.16  19 3.16  10 3.16  13 3.16  17 3.16
  23  0.200  0.400  0.600-  28 2.74  19 2.74  22 2.74  12 2.74   5 2.74  26 2.74  26 2.74  18 2.74
                            25 3.16  11 3.16  27 3.16   8 3.16
  24  0.067  0.133  0.200-  16 2.74   4 2.74  15 2.74   1 2.74  15 2.74  21 2.74  12 2.74   9 2.74
                             7 3.16  20 3.16  10 3.16  30 3.16
  25  0.767  0.533  0.800-   5 2.74  26 2.74  19 2.74  22 2.74  22 2.74  10 2.74  13 2.74  17 2.74
                            27 3.16  23 3.16  11 3.16  21 3.16  29 3.16  14 3.16
  26  0.700  0.400  0.600-   6 2.74  11 2.74  25 2.74   2 2.74  27 2.74  23 2.74  23 2.74   8 2.74
                            22 3.16  19 3.16  12 3.16  28 3.16  18 3.16
  27  0.600  0.200  0.800-  22 2.74  14 2.74  28 2.74  10 2.74  26 2.74   5 2.74   5 2.74   3 2.74
                            25 3.16  17 3.16  21 3.16  23 3.16
  28  0.533  0.067  0.600-  23 2.74  27 2.74  17 2.74   6 2.74   6 2.74   2 2.74  20 2.74  19 2.74
                            26 3.16  14 3.16  12 3.16  11 3.16
  29  0.333  0.667  0.000-   4 2.74  16 2.74  13 2.74  13 2.74  30 2.74  17 2.74  22 2.74  10 2.74
                             7 3.16   9 3.16  14 3.16  21 3.16  25 3.16
  30  0.233  0.467  0.200-   7 2.74  18 2.74  12 2.74   9 2.74   9 2.74  29 2.74  21 2.74  15 2.74
                            16 3.16   8 3.16  13 3.16  10 3.16  24 3.16
 
  LATTYP: Found a triclinic cell.
 ALAT       =     5.4732805519
 B/A-ratio  =     2.8722813233
 C/A-ratio  =     2.0615528128
 COS(alpha) =     0.0140733444
 COS(beta)  =     0.0808452083
 COS(gamma) =     0.8703882798
  
  Lattice vectors:
  
 A1 = (   3.1600000000,   3.1600000000,   3.1600000000)
 A2 = (  11.0600000000,  11.0600000000,   1.5800000000)
 A3 = (  -7.9000000000,   7.9000000000,   1.5800000000)


Analysis of symmetry for initial positions (statically):
=====================================================================
 Subroutine PRICEL returns:
 Original cell was already a primitive cell.
 

 Routine SETGRP: Setting up the symmetry group for a 
 triclinic supercell.


 Subroutine GETGRP returns: Found  1 space group operations
 (whereof  1 operations were pure point group operations)
 out of a pool of  2 trial point group operations.


The static configuration has the point symmetry C_1 .


Analysis of symmetry for dynamics (positions and initial velocities):
=====================================================================
 Subroutine PRICEL returns:
 Original cell was already a primitive cell.
 

 Routine SETGRP: Setting up the symmetry group for a 
 triclinic supercell.


 Subroutine GETGRP returns: Found  1 space group operations
 (whereof  1 operations were pure point group operations)
 out of a pool of  2 trial point group operations.


The dynamic configuration has the point symmetry C_1 .


 Subroutine INISYM returns: Found  1 space group operations
 (whereof  1 operations are pure point group operations),
 and found     1 'primitive' translations

 
 
 KPOINTS: k-points                                

Automatic generation of k-mesh.
Space group operators:
 irot       det(A)        alpha          n_x          n_y          n_z        tau_x        tau_y        tau_z
    1     1.000000     0.000000     1.000000     0.000000     0.000000     0.000000     0.000000     0.000000
 
 Subroutine IBZKPT returns following result:
 ===========================================
 
 Found     63 irreducible k-points:
 
 Following reciprocal coordinates:
            Coordinates               Weight
  0.000000  0.000000  0.000000      1.000000
  0.200000  0.000000  0.000000      2.000000
  0.400000  0.000000  0.000000      2.000000
  0.000000  0.200000  0.000000      2.000000
  0.200000  0.200000 -0.000000      2.000000
  0.400000  0.200000 -0.000000      2.000000
 -0.400000  0.200000  0.000000      2.000000
 -0.200000  0.200000  0.000000      2.000000
  0.000000  0.400000  0.000000      2.000000
  0.200000  0.400000 -0.000000      2.000000
  0.400000  0.400000 -0.000000      2.000000
 -0.400000  0.400000  0.000000      2.000000
 -0.200000  0.400000 -0.000000      2.000000
  0.000000  0.000000  0.200000      2.000000
  0.200000  0.000000  0.200000      2.000000
  0.400000  0.000000  0.200000      2.000000
 -0.400000  0.000000  0.200000      2.000000
 -0.200000  0.000000  0.200000      2.000000
  0.000000  0.200000  0.200000      2.000000
  0.200000  0.200000  0.200000      2.000000
  0.400000  0.200000  0.200000      2.000000
 -0.400000  0.200000  0.200000      2.000000
 -0.200000  0.200000  0.200000      2.000000
  0.000000  0.400000  0.200000      2.000000
  0.200000  0.400000  0.200000      2.000000
  0.400000  0.400000  0.200000      2.000000
 -0.400000  0.400000  0.200000      2.000000
 -0.200000  0.400000  0.200000      2.000000
  0.000000 -0.400000  0.200000      2.000000
  0.200000 -0.400000  0.200000      2.000000
  0.400000 -0.400000  0.200000      2.000000
 -0.400000 -0.400000  0.200000      2.000000
 -0.200000 -0.400000  0.200000      2.000000
  0.000000 -0.200000  0.200000      2.000000
  0.200000 -0.200000  0.200000      2.000000
  0.400000 -0.200000  0.200000      2.000000
 -0.400000 -0.200000  0.200000      2.000000
 -0.200000 -0.200000  0.200000      2.000000
  0.000000  0.000000  0.400000      2.000000
  0.200000  0.000000  0.400000      2.000000
  0.400000  0.000000  0.400000      2.000000
 -0.400000  0.000000  0.400000      2.000000
 -0.200000  0.000000  0.400000      2.000000
 -0.000000  0.200000  0.400000      2.000000
  0.200000  0.200000  0.400000      2.000000
  0.400000  0.200000  0.400000      2.000000
 -0.400000  0.200000  0.400000      2.000000
 -0.200000  0.200000  0.400000      2.000000
  0.000000  0.400000  0.400000      2.000000
  0.200000  0.400000  0.400000      2.000000
  0.400000  0.400000  0.400000      2.000000
 -0.400000  0.400000  0.400000      2.000000
 -0.200000  0.400000  0.400000      2.000000
  0.000000 -0.400000  0.400000      2.000000
  0.200000 -0.400000  0.400000      2.000000
  0.400000 -0.400000  0.400000      2.000000
 -0.400000 -0.400000  0.400000      2.000000
 -0.200000 -0.400000  0.400000      2.000000
 -0.000000 -0.200000  0.400000      2.000000
  0.200000 -0.200000  0.400000      2.000000
  0.400000 -0.200000  0.400000      2.000000
 -0.400000 -0.200000  0.400000      2.000000
 -0.200000 -0.200000  0.400000      2.000000
 
 Following cartesian coordinates:
            Coordinates               Weight
  0.000000  0.000000  0.000000      1.000000
 -0.086667 -0.080000 -0.033333      2.000000
 -0.173333 -0.160000 -0.066667      2.000000
  0.026667  0.040000 -0.066667      2.000000
 -0.060000 -0.040000 -0.100000      2.000000
 -0.146667 -0.120000 -0.133333      2.000000
  0.200000  0.200000  0.000000      2.000000
  0.113333  0.120000 -0.033333      2.000000
  0.053333  0.080000 -0.133333      2.000000
 -0.033333  0.000000 -0.166667      2.000000
 -0.120000 -0.080000 -0.200000      2.000000
  0.226667  0.240000 -0.066667      2.000000
  0.140000  0.160000 -0.100000      2.000000
  0.040000 -0.040000  0.000000      2.000000
 -0.046667 -0.120000 -0.033333      2.000000
 -0.133333 -0.200000 -0.066667      2.000000
  0.213333  0.120000  0.066667      2.000000
  0.126667  0.040000  0.033333      2.000000
  0.066667  0.000000 -0.066667      2.000000
 -0.020000 -0.080000 -0.100000      2.000000
 -0.106667 -0.160000 -0.133333      2.000000
  0.240000  0.160000  0.000000      2.000000
  0.153333  0.080000 -0.033333      2.000000
  0.093333  0.040000 -0.133333      2.000000
  0.006667 -0.040000 -0.166667      2.000000
 -0.080000 -0.120000 -0.200000      2.000000
  0.266667  0.200000 -0.066667      2.000000
  0.180000  0.120000 -0.100000      2.000000
 -0.013333 -0.120000  0.133333      2.000000
 -0.100000 -0.200000  0.100000      2.000000
 -0.186667 -0.280000  0.066667      2.000000
  0.160000  0.040000  0.200000      2.000000
  0.073333 -0.040000  0.166667      2.000000
  0.013333 -0.080000  0.066667      2.000000
 -0.073333 -0.160000  0.033333      2.000000
 -0.160000 -0.240000  0.000000      2.000000
  0.186667  0.080000  0.133333      2.000000
  0.100000  0.000000  0.100000      2.000000
  0.080000 -0.080000  0.000000      2.000000
 -0.006667 -0.160000 -0.033333      2.000000
 -0.093333 -0.240000 -0.066667      2.000000
  0.253333  0.080000  0.066667      2.000000
  0.166667  0.000000  0.033333      2.000000
  0.106667 -0.040000 -0.066667      2.000000
  0.020000 -0.120000 -0.100000      2.000000
 -0.066667 -0.200000 -0.133333      2.000000
  0.280000  0.120000  0.000000      2.000000
  0.193333  0.040000 -0.033333      2.000000
  0.133333  0.000000 -0.133333      2.000000
  0.046667 -0.080000 -0.166667      2.000000
 -0.040000 -0.160000 -0.200000      2.000000
  0.306667  0.160000 -0.066667      2.000000
  0.220000  0.080000 -0.100000      2.000000
  0.026667 -0.160000  0.133333      2.000000
 -0.060000 -0.240000  0.100000      2.000000
 -0.146667 -0.320000  0.066667      2.000000
  0.200000  0.000000  0.200000      2.000000
  0.113333 -0.080000  0.166667      2.000000
  0.053333 -0.120000  0.066667      2.000000
 -0.033333 -0.200000  0.033333      2.000000
 -0.120000 -0.280000  0.000000      2.000000
  0.226667  0.040000  0.133333      2.000000
  0.140000 -0.040000  0.100000      2.000000
 


--------------------------------------------------------------------------------------------------------




 Dimension of arrays:
   k-points           NKPTS =     63   k-points in BZ     NKDIM =     63   number of bands    NBANDS=    120
   number of dos      NEDOS =    301   number of ions     NIONS =     30
   non local maximal  LDIM  =      6   non local SUM 2l+1 LMDIM =     18
   total plane-waves  NPLWV = 126000
   max r-space proj   IRMAX =   4285   max aug-charges    IRDMAX=  18583
   dimension x,y,z NGX =    36 NGY =   50 NGZ =   70
   dimension x,y,z NGXF=    72 NGYF=  100 NGZF=  140
   support grid    NGXF=    72 NGYF=  100 NGZF=  140
   ions per type =               6   6   6   6   6
   NGX,Y,Z   is equivalent  to a cutoff of  10.93, 10.12, 10.31 a.u.
   NGXF,Y,Z  is equivalent  to a cutoff of  21.87, 20.25, 20.63 a.u.

 SYSTEM =  Nb - Mo - Ta - Ti - V SQS               
 POSCAR =  Nb - Mo - Ta - Ti - V SQS-30 BCC        

 Startparameter for this run:
   NWRITE =      2    write-flag & timer
   PREC   = normal    normal or accurate (medium, high low for compatibility)
   ISTART =      1    job   : 0-new  1-cont  2-samecut
   ICHARG =      1    charge: 1-file 2-atom 10-const
   ISPIN  =      1    spin polarized calculation?
   LNONCOLLINEAR =      F non collinear calculations
   LSORBIT =      F    spin-orbit coupling
   INIWAV =      1    electr: 0-lowe 1-rand  2-diag
   LASPH  =      F    aspherical Exc in radial PAW
   METAGGA=      F    non-selfconsistent MetaGGA calc.

 Electronic Relaxation 1
   ENCUT  =  600.0 eV  44.10 Ry    6.64 a.u.  10.93 16.40 22.54*2*pi/ulx,y,z
   ENINI  =  600.0     initial cutoff
   ENAUG  =  455.7 eV  augmentation charge cutoff
   NELM   =    100;   NELMIN=  2; NELMDL=  0     # of ELM steps 
   EDIFF  = 0.1E-03   stopping-criterion for ELM
   LREAL  =      T    real-space projection
   NLSPLINE    = F    spline interpolate recip. space projectors
   LCOMPAT=      F    compatible to vasp.4.4
   GGA_COMPAT  = T    GGA compatible to vasp.4.4-vasp.4.6
   LMAXPAW     = -100 max onsite density
   LMAXMIX     =    2 max onsite mixed and CHGCAR
   VOSKOWN=      0    Vosko Wilk Nusair interpolation
   ROPT   =   -0.00050  -0.00050  -0.00050  -0.00050
   ROPT   =   -0.00050
 Ionic relaxation
   EDIFFG = 0.1E-02   stopping-criterion for IOM
   NSW    =      0    number of steps for IOM
   NBLOCK =      1;   KBLOCK =      1    inner block; outer block 
   IBRION =     -1    ionic relax: 0-MD 1-quasi-New 2-CG
   NFREE  =      1    steps in history (QN), initial steepest desc. (CG)
   ISIF   =      2    stress and relaxation
   IWAVPR =     10    prediction:  0-non 1-charg 2-wave 3-comb
   ISYM   =      2    0-nonsym 1-usesym 2-fastsym
   LCORR  =      T    Harris-Foulkes like correction to forces

   POTIM  = 0.5000    time-step for ionic-motion
   TEIN   =    0.0    initial temperature
   TEBEG  =    0.0;   TEEND  =   0.0 temperature during run
   SMASS  =  -3.00    Nose mass-parameter (am)
   estimated Nose-frequenzy (Omega)   =  0.10E-29 period in steps =****** mass=  -0.685E-27a.u.
   SCALEE = 1.0000    scale energy and forces
   NPACO  =    256;   APACO  = 16.0  distance and # of slots for P.C.
   PSTRESS=    0.0 pullay stress

  Mass of Ions in am
   POMASS =  92.91 95.94180.95 47.88 50.94
  Ionic Valenz
   ZVAL   =  13.00  6.00  5.00  4.00  5.00
  Atomic Wigner-Seitz radii
   RWIGS  =  -1.00 -1.00 -1.00 -1.00 -1.00
  virtual crystal weights 
   VCA    =   1.00  1.00  1.00  1.00  1.00
   NELECT =     198.0000    total number of electrons
   NUPDOWN=      -1.0000    fix difference up-down

 DOS related values:
   EMIN   =  10.00;   EMAX   =-10.00  energy-range for DOS
   EFERMI =   0.00
   ISMEAR =     1;   SIGMA  =   0.20  broadening in eV -4-tet -1-fermi 0-gaus

 Electronic relaxation 2 (details)
   IALGO  =     38    algorithm
   LDIAG  =      T    sub-space diagonalisation (order eigenvalues)
   LSUBROT=      F    optimize rotation matrix (better conditioning)
   TURBO    =      0    0=normal 1=particle mesh
   IRESTART =      0    0=no restart 2=restart with 2 vectors
   NREBOOT  =      0    no. of reboots
   NMIN     =      0    reboot dimension
   EREF     =   0.00    reference energy to select bands
   IMIX   =      4    mixing-type and parameters
     AMIX     =   0.40;   BMIX     =  1.00
     AMIX_MAG =   1.60;   BMIX_MAG =  1.00
     AMIN     =   0.10
     WC   =   100.;   INIMIX=   1;  MIXPRE=   1;  MAXMIX= -45

 Intra band minimization:
   WEIMIN = 0.0000     energy-eigenvalue tresh-hold
   EBREAK =  0.21E-06  absolut break condition
   DEPER  =   0.30     relativ break condition  

   TIME   =   0.40     timestep for ELM

  volume/ion in A,a.u.               =      15.78       106.47
  Fermi-wavevector in a.u.,A,eV,Ry     =   1.224369  2.313722 20.396220  1.499080
  Thomas-Fermi vector in A             =   2.359446
 
 Write flags
   LWAVE        =      T    write WAVECAR
   LDOWNSAMPLE  =      F    k-point downsampling of WAVECAR
   LCHARG       =      T    write CHGCAR
   LVTOT        =      F    write LOCPOT, total local potential
   LVHAR        =      F    write LOCPOT, Hartree potential only
   LELF         =      F    write electronic localiz. function (ELF)
   LORBIT       =      0    0 simple, 1 ext, 2 COOP (PROOUT), +10 PAW based schemes


 Dipole corrections
   LMONO  =      F    monopole corrections only (constant potential shift)
   LDIPOL =      F    correct potential (dipole corrections)
   IDIPOL =      0    1-x, 2-y, 3-z, 4-all directions 
   EPSILON=  1.0000000 bulk dielectric constant

 Exchange correlation treatment:
   GGA     =    PS    GGA type
   LEXCH   =    14    internal setting for exchange type
   VOSKOWN=      0    Vosko Wilk Nusair interpolation
   LHFCALC =     F    Hartree Fock is set to
   LHFONE  =     F    Hartree Fock one center treatment
   AEXX    =    0.0000 exact exchange contribution

 Linear response parameters
   LEPSILON=     F    determine dielectric tensor
   LRPA    =     F    only Hartree local field effects (RPA)
   LNABLA  =     F    use nabla operator in PAW spheres
   LVEL    =     F    velocity operator in full k-point grid
   LINTERFAST=   F  fast interpolation
   KINTER  =     0    interpolate to denser k-point grid
   CSHIFT  =0.1000    complex shift for real part using Kramers Kronig
   OMEGAMAX=  -1.0    maximum frequency
   DEG_THRESHOLD= 0.2000000E-02 threshold for treating states as degnerate
   RTIME   =   -0.100 relaxation time in fs
  (WPLASMAI=    0.000 imaginary part of plasma frequency in eV, 0.658/RTIME)
   DFIELD  = 0.0000000 0.0000000 0.0000000 field for delta impulse in time
 
 Orbital magnetization related:
   ORBITALMAG=     F  switch on orbital magnetization
   LCHIMAG   =     F  perturbation theory with respect to B field
   DQ        =  0.001000  dq finite difference perturbation B field
   LLRAUG    =     F  two centre corrections for induced B field



--------------------------------------------------------------------------------------------------------


 Static calculation
 charge density and potential will be updated during run
 non-spin polarized calculation
 Variant of blocked Davidson
 Davidson routine will perform the subspace rotation
 perform sub-space diagonalisation
    after iterative eigenvector-optimisation
 modified Broyden-mixing scheme, WC =      100.0
 initial mixing is a Kerker type mixing with AMIX =  0.4000 and BMIX =      1.0000
 Hartree-type preconditioning will be used
 using additional bands           21
 real space projection scheme for non local part
 use partial core corrections
 calculate Harris-corrections to forces 
   (improved forces if not selfconsistent)
 use gradient corrections 
 use of overlap-Matrix (Vanderbilt PP)
 Methfessel and Paxton  Order N= 1 SIGMA  =   0.20


--------------------------------------------------------------------------------------------------------


  energy-cutoff  :      600.00
  volume of cell :      473.32
      direct lattice vectors                 reciprocal lattice vectors
    -3.160000000 -3.160000000 -3.160000000    -0.137130802 -0.126582278 -0.052742616
     1.580000000  1.580000000 -7.900000000     0.042194093  0.063291139 -0.105485232
     7.900000000 -7.900000000 -1.580000000     0.063291139 -0.063291139  0.000000000

  length of vectors
     5.473280552  8.209920828 11.283456917     0.193932240  0.130050928  0.089507187


 
 old parameters found on file WAVECAR:
  energy-cutoff  :      600.00
  volume of cell :      473.32
      direct lattice vectors                 reciprocal lattice vectors
    -3.160000000 -3.160000000 -3.160000000    -0.137130802 -0.126582278 -0.052742616
     1.580000000  1.580000000 -7.900000000     0.042194093  0.063291139 -0.105485232
     7.900000000 -7.900000000 -1.580000000     0.063291139 -0.063291139  0.000000000

  length of vectors

 
 k-points in units of 2pi/SCALE and weight: k-points                                
   0.00000000  0.00000000  0.00000000       0.008
  -0.08666667 -0.08000000 -0.03333333       0.016
  -0.17333333 -0.16000000 -0.06666667       0.016
   0.02666667  0.04000000 -0.06666667       0.016
  -0.06000000 -0.04000000 -0.10000000       0.016
  -0.14666667 -0.12000000 -0.13333333       0.016
   0.20000000  0.20000000  0.00000000       0.016
   0.11333333  0.12000000 -0.03333333       0.016
   0.05333333  0.08000000 -0.13333333       0.016
  -0.03333333  0.00000000 -0.16666667       0.016
  -0.12000000 -0.08000000 -0.20000000       0.016
   0.22666667  0.24000000 -0.06666667       0.016
   0.14000000  0.16000000 -0.10000000       0.016
   0.04000000 -0.04000000  0.00000000       0.016
  -0.04666667 -0.12000000 -0.03333333       0.016
  -0.13333333 -0.20000000 -0.06666667       0.016
   0.21333333  0.12000000  0.06666667       0.016
   0.12666667  0.04000000  0.03333333       0.016
   0.06666667  0.00000000 -0.06666667       0.016
  -0.02000000 -0.08000000 -0.10000000       0.016
  -0.10666667 -0.16000000 -0.13333333       0.016
   0.24000000  0.16000000  0.00000000       0.016
   0.15333333  0.08000000 -0.03333333       0.016
   0.09333333  0.04000000 -0.13333333       0.016
   0.00666667 -0.04000000 -0.16666667       0.016
  -0.08000000 -0.12000000 -0.20000000       0.016
   0.26666667  0.20000000 -0.06666667       0.016
   0.18000000  0.12000000 -0.10000000       0.016
  -0.01333333 -0.12000000  0.13333333       0.016
  -0.10000000 -0.20000000  0.10000000       0.016
  -0.18666667 -0.28000000  0.06666667       0.016
   0.16000000  0.04000000  0.20000000       0.016
   0.07333333 -0.04000000  0.16666667       0.016
   0.01333333 -0.08000000  0.06666667       0.016
  -0.07333333 -0.16000000  0.03333333       0.016
  -0.16000000 -0.24000000  0.00000000       0.016
   0.18666667  0.08000000  0.13333333       0.016
   0.10000000  0.00000000  0.10000000       0.016
   0.08000000 -0.08000000  0.00000000       0.016
  -0.00666667 -0.16000000 -0.03333333       0.016
  -0.09333333 -0.24000000 -0.06666667       0.016
   0.25333333  0.08000000  0.06666667       0.016
   0.16666667  0.00000000  0.03333333       0.016
   0.10666667 -0.04000000 -0.06666667       0.016
   0.02000000 -0.12000000 -0.10000000       0.016
  -0.06666667 -0.20000000 -0.13333333       0.016
   0.28000000  0.12000000  0.00000000       0.016
   0.19333333  0.04000000 -0.03333333       0.016
   0.13333333  0.00000000 -0.13333333       0.016
   0.04666667 -0.08000000 -0.16666667       0.016
  -0.04000000 -0.16000000 -0.20000000       0.016
   0.30666667  0.16000000 -0.06666667       0.016
   0.22000000  0.08000000 -0.10000000       0.016
   0.02666667 -0.16000000  0.13333333       0.016
  -0.06000000 -0.24000000  0.10000000       0.016
  -0.14666667 -0.32000000  0.06666667       0.016
   0.20000000  0.00000000  0.20000000       0.016
   0.11333333 -0.08000000  0.16666667       0.016
   0.05333333 -0.12000000  0.06666667       0.016
  -0.03333333 -0.20000000  0.03333333       0.016
  -0.12000000 -0.28000000  0.00000000       0.016
   0.22666667  0.04000000  0.13333333       0.016
   0.14000000 -0.04000000  0.10000000       0.016
 
 k-points in reciprocal lattice and weights: k-points                                
   0.00000000  0.00000000  0.00000000       0.008
   0.20000000  0.00000000  0.00000000       0.016
   0.40000000  0.00000000  0.00000000       0.016
   0.00000000  0.20000000  0.00000000       0.016
   0.20000000  0.20000000 -0.00000000       0.016
   0.40000000  0.20000000 -0.00000000       0.016
  -0.40000000  0.20000000  0.00000000       0.016
  -0.20000000  0.20000000  0.00000000       0.016
   0.00000000  0.40000000  0.00000000       0.016
   0.20000000  0.40000000 -0.00000000       0.016
   0.40000000  0.40000000 -0.00000000       0.016
  -0.40000000  0.40000000  0.00000000       0.016
  -0.20000000  0.40000000 -0.00000000       0.016
   0.00000000  0.00000000  0.20000000       0.016
   0.20000000  0.00000000  0.20000000       0.016
   0.40000000  0.00000000  0.20000000       0.016
  -0.40000000  0.00000000  0.20000000       0.016
  -0.20000000  0.00000000  0.20000000       0.016
   0.00000000  0.20000000  0.20000000       0.016
   0.20000000  0.20000000  0.20000000       0.016
   0.40000000  0.20000000  0.20000000       0.016
  -0.40000000  0.20000000  0.20000000       0.016
  -0.20000000  0.20000000  0.20000000       0.016
   0.00000000  0.40000000  0.20000000       0.016
   0.20000000  0.40000000  0.20000000       0.016
   0.40000000  0.40000000  0.20000000       0.016
  -0.40000000  0.40000000  0.20000000       0.016
  -0.20000000  0.40000000  0.20000000       0.016
   0.00000000 -0.40000000  0.20000000       0.016
   0.20000000 -0.40000000  0.20000000       0.016
   0.40000000 -0.40000000  0.20000000       0.016
  -0.40000000 -0.40000000  0.20000000       0.016
  -0.20000000 -0.40000000  0.20000000       0.016
   0.00000000 -0.20000000  0.20000000       0.016
   0.20000000 -0.20000000  0.20000000       0.016
   0.40000000 -0.20000000  0.20000000       0.016
  -0.40000000 -0.20000000  0.20000000       0.016
  -0.20000000 -0.20000000  0.20000000       0.016
   0.00000000  0.00000000  0.40000000       0.016
   0.20000000  0.00000000  0.40000000       0.016
   0.40000000  0.00000000  0.40000000       0.016
  -0.40000000  0.00000000  0.40000000       0.016
  -0.20000000  0.00000000  0.40000000       0.016
  -0.00000000  0.20000000  0.40000000       0.016
   0.20000000  0.20000000  0.40000000       0.016
   0.40000000  0.20000000  0.40000000       0.016
  -0.40000000  0.20000000  0.40000000       0.016
  -0.20000000  0.20000000  0.40000000       0.016
   0.00000000  0.40000000  0.40000000       0.016
   0.20000000  0.40000000  0.40000000       0.016
   0.40000000  0.40000000  0.40000000       0.016
  -0.40000000  0.40000000  0.40000000       0.016
  -0.20000000  0.40000000  0.40000000       0.016
   0.00000000 -0.40000000  0.40000000       0.016
   0.20000000 -0.40000000  0.40000000       0.016
   0.40000000 -0.40000000  0.40000000       0.016
  -0.40000000 -0.40000000  0.40000000       0.016
  -0.20000000 -0.40000000  0.40000000       0.016
  -0.00000000 -0.20000000  0.40000000       0.016
   0.20000000 -0.20000000  0.40000000       0.016
   0.40000000 -0.20000000  0.40000000       0.016
  -0.40000000 -0.20000000  0.40000000       0.016
  -0.20000000 -0.20000000  0.40000000       0.016
 
 position of ions in fractional coordinates (direct lattice) 
   0.96666667  0.93333333  0.40000000
   0.63333333  0.26666667  0.40000000
   0.50000000  0.00000000  0.00000000
   0.00000000  0.00000000  0.00000000
   0.10000000  0.20000000  0.80000000
   0.03333333  0.06666667  0.60000000
   0.90000000  0.80000000  0.20000000
   0.80000000  0.60000000  0.40000000
   0.73333333  0.46666667  0.20000000
   0.66666667  0.33333333  0.00000000
   0.36666667  0.73333333  0.60000000
   0.13333333  0.26666667  0.40000000
   0.83333333  0.66666667  0.00000000
   0.93333333  0.86666667  0.80000000
   0.56666667  0.13333333  0.20000000
   0.40000000  0.80000000  0.20000000
   0.43333333  0.86666667  0.80000000
   0.30000000  0.60000000  0.40000000
   0.86666667  0.73333333  0.60000000
   0.46666667  0.93333333  0.40000000
   0.16666667  0.33333333  0.00000000
   0.26666667  0.53333333  0.80000000
   0.20000000  0.40000000  0.60000000
   0.06666667  0.13333333  0.20000000
   0.76666667  0.53333333  0.80000000
   0.70000000  0.40000000  0.60000000
   0.60000000  0.20000000  0.80000000
   0.53333333  0.06666667  0.60000000
   0.33333333  0.66666667  0.00000000
   0.23333333  0.46666667  0.20000000
 
 position of ions in cartesian coordinates  (Angst):
   1.57999998 -4.74000002-11.05999998
   1.58000002 -4.73999998 -4.74000002
  -1.58000000 -1.58000000 -1.58000000
   0.00000000  0.00000000  0.00000000
   6.32000000 -6.32000000 -3.16000000
   4.74000002 -4.73999998 -1.58000002
   0.00000000 -3.16000000 -9.48000000
   1.58000000 -4.74000000 -7.90000000
   0.00000002 -3.15999998 -6.32000002
  -1.58000002 -1.58000002 -4.73999998
   4.73999998 -4.74000002 -7.89999998
   3.16000002 -3.15999998 -3.16000002
  -1.57999998 -1.57999998 -7.90000002
   4.74000002 -7.89999998-11.06000002
  -0.00000002 -3.16000002 -3.15999998
   1.58000000 -1.58000000 -7.90000000
   6.32000002 -6.31999998 -9.48000002
   3.16000000 -3.16000000 -6.32000000
   3.15999998 -6.32000002 -9.47999998
   3.15999998 -3.16000002 -9.47999998
  -0.00000002 -0.00000002 -3.15999998
   6.31999998 -6.32000002 -6.31999998
   4.74000000 -4.74000000 -4.74000000
   1.57999998 -1.58000002 -1.57999998
   4.73999998 -7.90000002 -7.89999998
   3.16000000 -6.32000000 -6.32000000
   4.74000000 -7.90000000 -4.74000000
   3.16000002 -6.31999998 -3.16000002
   0.00000002  0.00000002 -6.32000002
   1.58000002 -1.57999998 -4.74000002
 


--------------------------------------------------------------------------------------------------------


 k-point  1 :   0.0000 0.0000 0.0000  plane waves:   15795
 k-point  2 :   0.2000 0.0000 0.0000  plane waves:   15783
 k-point  3 :   0.4000 0.0000 0.0000  plane waves:   15813
 k-point  4 :   0.0000 0.2000 0.0000  plane waves:   15802
 k-point  5 :   0.2000 0.2000-0.0000  plane waves:   15798
 k-point  6 :   0.4000 0.2000-0.0000  plane waves:   15817
 k-point  7 :  -0.4000 0.2000 0.0000  plane waves:   15819
 k-point  8 :  -0.2000 0.2000 0.0000  plane waves:   15788
 k-point  9 :   0.0000 0.4000 0.0000  plane waves:   15747
 k-point 10 :   0.2000 0.4000-0.0000  plane waves:   15800
 k-point 11 :   0.4000 0.4000-0.0000  plane waves:   15811
 k-point 12 :  -0.4000 0.4000 0.0000  plane waves:   15804
 k-point 13 :  -0.2000 0.4000-0.0000  plane waves:   15798
 k-point 14 :   0.0000 0.0000 0.2000  plane waves:   15800
 k-point 15 :   0.2000 0.0000 0.2000  plane waves:   15799
 k-point 16 :   0.4000 0.0000 0.2000  plane waves:   15834
 k-point 17 :  -0.4000 0.0000 0.2000  plane waves:   15810
 k-point 18 :  -0.2000 0.0000 0.2000  plane waves:   15794
 k-point 19 :   0.0000 0.2000 0.2000  plane waves:   15775
 k-point 20 :   0.2000 0.2000 0.2000  plane waves:   15783
 k-point 21 :   0.4000 0.2000 0.2000  plane waves:   15807
 k-point 22 :  -0.4000 0.2000 0.2000  plane waves:   15785
 k-point 23 :  -0.2000 0.2000 0.2000  plane waves:   15784
 k-point 24 :   0.0000 0.4000 0.2000  plane waves:   15743
 k-point 25 :   0.2000 0.4000 0.2000  plane waves:   15791
 k-point 26 :   0.4000 0.4000 0.2000  plane waves:   15801
 k-point 27 :  -0.4000 0.4000 0.2000  plane waves:   15803
 k-point 28 :  -0.2000 0.4000 0.2000  plane waves:   15793
 k-point 29 :   0.0000-0.4000 0.2000  plane waves:   15746
 k-point 30 :   0.2000-0.4000 0.2000  plane waves:   15783
 k-point 31 :   0.4000-0.4000 0.2000  plane waves:   15818
 k-point 32 :  -0.4000-0.4000 0.2000  plane waves:   15820
 k-point 33 :  -0.2000-0.4000 0.2000  plane waves:   15799
 k-point 34 :   0.0000-0.2000 0.2000  plane waves:   15784
 k-point 35 :   0.2000-0.2000 0.2000  plane waves:   15804
 k-point 36 :   0.4000-0.2000 0.2000  plane waves:   15828
 k-point 37 :  -0.4000-0.2000 0.2000  plane waves:   15811
 k-point 38 :  -0.2000-0.2000 0.2000  plane waves:   15792
 k-point 39 :   0.0000 0.0000 0.4000  plane waves:   15798
 k-point 40 :   0.2000 0.0000 0.4000  plane waves:   15803
 k-point 41 :   0.4000 0.0000 0.4000  plane waves:   15818
 k-point 42 :  -0.4000 0.0000 0.4000  plane waves:   15783
 k-point 43 :  -0.2000 0.0000 0.4000  plane waves:   15783
 k-point 44 :  -0.0000 0.2000 0.4000  plane waves:   15777
 k-point 45 :   0.2000 0.2000 0.4000  plane waves:   15789
 k-point 46 :   0.4000 0.2000 0.4000  plane waves:   15805
 k-point 47 :  -0.4000 0.2000 0.4000  plane waves:   15796
 k-point 48 :  -0.2000 0.2000 0.4000  plane waves:   15796
 k-point 49 :   0.0000 0.4000 0.4000  plane waves:   15744
 k-point 50 :   0.2000 0.4000 0.4000  plane waves:   15778
 k-point 51 :   0.4000 0.4000 0.4000  plane waves:   15802
 k-point 52 :  -0.4000 0.4000 0.4000  plane waves:   15804
 k-point 53 :  -0.2000 0.4000 0.4000  plane waves:   15777
 k-point 54 :   0.0000-0.4000 0.4000  plane waves:   15734
 k-point 55 :   0.2000-0.4000 0.4000  plane waves:   15777
 k-point 56 :   0.4000-0.4000 0.4000  plane waves:   15799
 k-point 57 :  -0.4000-0.4000 0.4000  plane waves:   15816
 k-point 58 :  -0.2000-0.4000 0.4000  plane waves:   15795
 k-point 59 :  -0.0000-0.2000 0.4000  plane waves:   15799
 k-point 60 :   0.2000-0.2000 0.4000  plane waves:   15786
 k-point 61 :   0.4000-0.2000 0.4000  plane waves:   15803
 k-point 62 :  -0.4000-0.2000 0.4000  plane waves:   15814
 k-point 63 :  -0.2000-0.2000 0.4000  plane waves:   15801

 maximum and minimum number of plane-waves per node :      3986     3913

 maximum number of plane-waves:     15834
 maximum index in each direction: 
   IXMAX=   11   IYMAX=   16   IZMAX=   22
   IXMIN=  -11   IYMIN=  -16   IZMIN=  -22


 real space projection operators:
  total allocation   :      16761.63 KBytes
  max/ min on nodes  :       4194.14       4186.64


 parallel 3D FFT for wavefunctions:
    minimum data exchange during FFTs selected (reduces bandwidth)
 parallel 3D FFT for charge:
    minimum data exchange during FFTs selected (reduces bandwidth)


 total amount of memory used by VASP MPI-rank0   106611. kBytes
=======================================================================

   base      :      30000. kBytes
   nonlr-proj:       7321. kBytes
   fftplans  :       2328. kBytes
   grid      :       4665. kBytes
   one-center:        124. kBytes
   wavefun   :      62173. kBytes
 
     INWAV:  cpu time    5.4224: real time   12.3434
 Broyden mixing: mesh for mixing (old mesh)
   NGX = 21   NGY = 33   NGZ = 45
  (NGX  = 72   NGY  =100   NGZ  =140)
  gives a total of  31185 points

 initial charge density was supplied:
 number of electron     198.0000013 magnetization 
 keeping initial charge density in first step


--------------------------------------------------------------------------------------------------------


 Maximum index for non-local projection operator         1035
 Maximum index for augmentation-charges         1423 (set IRDMAX)


--------------------------------------------------------------------------------------------------------


 First call to EWALD:  gamma=   0.227
 Maximum number of real-space cells 4x 3x 2
 Maximum number of reciprocal cells 2x 3x 4

    FEWALD:  cpu time    0.0024: real time    0.0024


--------------------------------------- Iteration      1(   1)  ---------------------------------------


    POTLOK:  cpu time    0.0281: real time    0.0542
    SETDIJ:  cpu time    0.0058: real time    0.0059
     EDDAV:  cpu time   30.6542: real time   30.7177
       DOS:  cpu time    0.0042: real time    0.0042
    CHARGE:  cpu time    0.5865: real time    0.5869
    MIXING:  cpu time    0.0020: real time    0.0019
    --------------------------------------------
      LOOP:  cpu time   31.2808: real time   31.3708

 eigenvalue-minimisations  : 27784
 total energy-change (2. order) :-0.3294877E+03  (-0.2264294E+00)
 number of electron     198.0000012 magnetization 
 augmentation part       35.7140541 magnetization 

 Broyden mixing:
  rms(total) = 0.32807E+01    rms(broyden)= 0.32807E+01
  rms(prec ) = 0.47939E+01
  weight for this iteration     100.00

 Free energy of the ion-electron system (eV)
  ---------------------------------------------------
  alpha Z        PSCENC =      1230.05567093
  Ewald energy   TEWEN  =    -11534.45390572
  -Hartree energ DENC   =     -2951.91024796
  -exchange      EXHF   =         0.00000000
  -V(xc)+E(xc)   XCENC  =      -886.40918750
  PAW double counting   =     19440.78107374   -17929.87351495
  entropy T*S    EENTRO =        -0.02096414
  eigenvalues    EBANDS =      -703.56452456
  atomic energy  EATOM  =     13005.90793652
  Solvation  Ediel_sol  =         0.00000000
  ---------------------------------------------------
  free energy    TOTEN  =      -329.48766364 eV

  energy without entropy =     -329.46669950  energy(sigma->0) =     -329.48067560


--------------------------------------------------------------------------------------------------------




--------------------------------------- Iteration      1(   2)  ---------------------------------------


    POTLOK:  cpu time    0.0231: real time    0.0282
    SETDIJ:  cpu time    0.0054: real time    0.0055
     EDDAV:  cpu time   24.7895: real time   24.8152
       DOS:  cpu time    0.0040: real time    0.0041
    CHARGE:  cpu time    0.5923: real time    0.5928
    MIXING:  cpu time    0.0013: real time    0.0014
    --------------------------------------------
      LOOP:  cpu time   25.4158: real time   25.4470

 eigenvalue-minimisations  : 21632
 total energy-change (2. order) :-0.5034555E+02  (-0.1014133E+03)
 number of electron     198.0000009 magnetization 
 augmentation part       37.3693540 magnetization 

 Broyden mixing:
  rms(total) = 0.34282E+01    rms(broyden)= 0.34282E+01
  rms(prec ) = 0.59284E+01
  weight for this iteration     100.00

 eigenvalues of (default mixing * dielectric matrix)
  average eigenvalue GAMMA=   0.4963
  0.4963

 Free energy of the ion-electron system (eV)
  ---------------------------------------------------
  alpha Z        PSCENC =      1230.05567093
  Ewald energy   TEWEN  =    -11534.45390572
  -Hartree energ DENC   =     -2971.78708374
  -exchange      EXHF   =         0.00000000
  -V(xc)+E(xc)   XCENC  =      -886.04551866
  PAW double counting   =     19461.36778913   -17958.30654320
  entropy T*S    EENTRO =        -0.00757970
  eigenvalues    EBANDS =      -726.56397905
  atomic energy  EATOM  =     13005.90793652
  Solvation  Ediel_sol  =         0.00000000
  ---------------------------------------------------
  free energy    TOTEN  =      -379.83321348 eV

  energy without entropy =     -379.82563378  energy(sigma->0) =     -379.83068692


--------------------------------------------------------------------------------------------------------




--------------------------------------- Iteration      1(   3)  ---------------------------------------


    POTLOK:  cpu time    0.0277: real time    0.0288
    SETDIJ:  cpu time    0.0054: real time    0.0054
     EDDAV:  cpu time   27.5398: real time   27.5677
       DOS:  cpu time    0.0039: real time    0.0039
    CHARGE:  cpu time    0.5919: real time    0.5924
    MIXING:  cpu time    0.0010: real time    0.0010
    --------------------------------------------
      LOOP:  cpu time   28.1696: real time   28.1990

 eigenvalue-minimisations  : 24216
 total energy-change (2. order) : 0.3094429E+02  (-0.2438659E+02)
 number of electron     198.0000002 magnetization 
 augmentation part       33.3221638 magnetization 

 Broyden mixing:
  rms(total) = 0.28026E+01    rms(broyden)= 0.28026E+01
  rms(prec ) = 0.45735E+01
  weight for this iteration     100.00

 eigenvalues of (default mixing * dielectric matrix)
  average eigenvalue GAMMA=   0.3696
  0.3696  0.3696

 Free energy of the ion-electron system (eV)
  ---------------------------------------------------
  alpha Z        PSCENC =      1230.05567093
  Ewald energy   TEWEN  =    -11534.45390572
  -Hartree energ DENC   =     -2965.02893863
  -exchange      EXHF   =         0.00000000
  -V(xc)+E(xc)   XCENC  =      -886.89824998
  PAW double counting   =     19395.89740867   -17894.87497421
  entropy T*S    EENTRO =        -0.00567892
  eigenvalues    EBANDS =      -699.48819057
  atomic energy  EATOM  =     13005.90793652
  Solvation  Ediel_sol  =         0.00000000
  ---------------------------------------------------
  free energy    TOTEN  =      -348.88892191 eV

  energy without entropy =     -348.88324299  energy(sigma->0) =     -348.88702894


--------------------------------------------------------------------------------------------------------




--------------------------------------- Iteration      1(   4)  ---------------------------------------


    POTLOK:  cpu time    0.0222: real time    0.0228
    SETDIJ:  cpu time    0.0055: real time    0.0055
     EDDAV:  cpu time   29.4962: real time   29.5313
       DOS:  cpu time    0.0041: real time    0.0041
    CHARGE:  cpu time    0.5902: real time    0.5907
    MIXING:  cpu time    0.0010: real time    0.0010
    --------------------------------------------
      LOOP:  cpu time   30.1192: real time   30.1555

 eigenvalue-minimisations  : 26184
 total energy-change (2. order) : 0.1786028E+02  (-0.4964823E+01)
 number of electron     198.0000005 magnetization 
 augmentation part       32.6199034 magnetization 

 Broyden mixing:
  rms(total) = 0.19911E+01    rms(broyden)= 0.19911E+01
  rms(prec ) = 0.32043E+01
  weight for this iteration     100.00

 eigenvalues of (default mixing * dielectric matrix)
  average eigenvalue GAMMA=   0.3416
  0.3808  0.3808  0.2632

 Free energy of the ion-electron system (eV)
  ---------------------------------------------------
  alpha Z        PSCENC =      1230.05567093
  Ewald energy   TEWEN  =    -11534.45390572
  -Hartree energ DENC   =     -2962.03401110
  -exchange      EXHF   =         0.00000000
  -V(xc)+E(xc)   XCENC  =      -887.05720947
  PAW double counting   =     19400.27769111   -17897.52461765
  entropy T*S    EENTRO =        -0.00613010
  eigenvalues    EBANDS =      -686.19406454
  atomic energy  EATOM  =     13005.90793652
  Solvation  Ediel_sol  =         0.00000000
  ---------------------------------------------------
  free energy    TOTEN  =      -331.02864003 eV

  energy without entropy =     -331.02250993  energy(sigma->0) =     -331.02659666


--------------------------------------------------------------------------------------------------------




--------------------------------------- Iteration      1(   5)  ---------------------------------------


    POTLOK:  cpu time    0.0248: real time    0.0310
    SETDIJ:  cpu time    0.0055: real time    0.0055
     EDDAV:  cpu time   29.9939: real time   30.0294
       DOS:  cpu time    0.0041: real time    0.0041
    CHARGE:  cpu time    0.5895: real time    0.5900
    MIXING:  cpu time    0.0010: real time    0.0010
    --------------------------------------------
      LOOP:  cpu time   30.6187: real time   30.6610

 eigenvalue-minimisations  : 26704
 total energy-change (2. order) : 0.5426015E+01  (-0.1414113E+01)
 number of electron     198.0000006 magnetization 
 augmentation part       33.3847803 magnetization 

 Broyden mixing:
  rms(total) = 0.16789E+01    rms(broyden)= 0.16789E+01
  rms(prec ) = 0.26265E+01
  weight for this iteration     100.00

 eigenvalues of (default mixing * dielectric matrix)
  average eigenvalue GAMMA=   0.3781
  0.5103  0.5103  0.3141  0.1776

 Free energy of the ion-electron system (eV)
  ---------------------------------------------------
  alpha Z        PSCENC =      1230.05567093
  Ewald energy   TEWEN  =    -11534.45390572
  -Hartree energ DENC   =     -2963.73577370
  -exchange      EXHF   =         0.00000000
  -V(xc)+E(xc)   XCENC  =      -886.91366274
  PAW double counting   =     19414.55580149   -17910.20967608
  entropy T*S    EENTRO =        -0.01456560
  eigenvalues    EBANDS =      -680.79445006
  atomic energy  EATOM  =     13005.90793652
  Solvation  Ediel_sol  =         0.00000000
  ---------------------------------------------------
  free energy    TOTEN  =      -325.60262495 eV

  energy without entropy =     -325.58805935  energy(sigma->0) =     -325.59776975


--------------------------------------------------------------------------------------------------------




--------------------------------------- Iteration      1(   6)  ---------------------------------------


    POTLOK:  cpu time    0.0224: real time    0.0291
    SETDIJ:  cpu time    0.0054: real time    0.0054
     EDDAV:  cpu time   27.6374: real time   27.6666
       DOS:  cpu time    0.0043: real time    0.0043
    CHARGE:  cpu time    0.5907: real time    0.5911
    MIXING:  cpu time    0.0013: real time    0.0013
    --------------------------------------------
      LOOP:  cpu time   28.2615: real time   28.2978

 eigenvalue-minimisations  : 24400
 total energy-change (2. order) : 0.4653096E+01  (-0.1261388E+01)
 number of electron     198.0000006 magnetization 
 augmentation part       33.5952564 magnetization 

 Broyden mixing:
  rms(total) = 0.12461E+01    rms(broyden)= 0.12461E+01
  rms(prec ) = 0.18457E+01
  weight for this iteration     100.00

 eigenvalues of (default mixing * dielectric matrix)
  average eigenvalue GAMMA=   0.4388
  0.6902  0.6902  0.3978  0.2669  0.1488

 Free energy of the ion-electron system (eV)
  ---------------------------------------------------
  alpha Z        PSCENC =      1230.05567093
  Ewald energy   TEWEN  =    -11534.45390572
  -Hartree energ DENC   =     -2962.00631504
  -exchange      EXHF   =         0.00000000
  -V(xc)+E(xc)   XCENC  =      -886.83738980
  PAW double counting   =     19422.47694803   -17916.45008518
  entropy T*S    EENTRO =        -0.00767758
  eigenvalues    EBANDS =      -679.63471153
  atomic energy  EATOM  =     13005.90793652
  Solvation  Ediel_sol  =         0.00000000
  ---------------------------------------------------
  free energy    TOTEN  =      -320.94952936 eV

  energy without entropy =     -320.94185178  energy(sigma->0) =     -320.94697017


--------------------------------------------------------------------------------------------------------




--------------------------------------- Iteration      1(   7)  ---------------------------------------


    POTLOK:  cpu time    0.0223: real time    0.0233
    SETDIJ:  cpu time    0.0053: real time    0.0053
     EDDAV:  cpu time   29.0083: real time   29.0387
       DOS:  cpu time    0.0040: real time    0.0040
    CHARGE:  cpu time    0.5923: real time    0.5933
    MIXING:  cpu time    0.0011: real time    0.0011
    --------------------------------------------
      LOOP:  cpu time   29.6334: real time   29.6658

 eigenvalue-minimisations  : 25816
 total energy-change (2. order) : 0.1868346E+01  (-0.1208099E+01)
 number of electron     198.0000008 magnetization 
 augmentation part       33.5811760 magnetization 

 Broyden mixing:
  rms(total) = 0.55574E+00    rms(broyden)= 0.55573E+00
  rms(prec ) = 0.75327E+00
  weight for this iteration     100.00

 eigenvalues of (default mixing * dielectric matrix)
  average eigenvalue GAMMA=   0.4360
  0.6456  0.6456  0.6596  0.2600  0.2600  0.1448

 Free energy of the ion-electron system (eV)
  ---------------------------------------------------
  alpha Z        PSCENC =      1230.05567093
  Ewald energy   TEWEN  =    -11534.45390572
  -Hartree energ DENC   =     -2956.06138910
  -exchange      EXHF   =         0.00000000
  -V(xc)+E(xc)   XCENC  =      -886.82062726
  PAW double counting   =     19424.08067044   -17916.95927645
  entropy T*S    EENTRO =        -0.01298701
  eigenvalues    EBANDS =      -684.81727618
  atomic energy  EATOM  =     13005.90793652
  Solvation  Ediel_sol  =         0.00000000
  ---------------------------------------------------
  free energy    TOTEN  =      -319.08118384 eV

  energy without entropy =     -319.06819683  energy(sigma->0) =     -319.07685483


--------------------------------------------------------------------------------------------------------




--------------------------------------- Iteration      1(   8)  ---------------------------------------


    POTLOK:  cpu time    0.0237: real time    0.0317
    SETDIJ:  cpu time    0.0053: real time    0.0053
     EDDAV:  cpu time   28.5316: real time   28.5626
       DOS:  cpu time    0.0040: real time    0.0040
    CHARGE:  cpu time    0.5895: real time    0.5899
    MIXING:  cpu time    0.0012: real time    0.0012
    --------------------------------------------
      LOOP:  cpu time   29.1554: real time   29.1948

 eigenvalue-minimisations  : 25336
 total energy-change (2. order) : 0.8310069E-02  (-0.3278607E+00)
 number of electron     198.0000008 magnetization 
 augmentation part       33.5827886 magnetization 

 Broyden mixing:
  rms(total) = 0.50681E+00    rms(broyden)= 0.50681E+00
  rms(prec ) = 0.72158E+00
  weight for this iteration     100.00

 eigenvalues of (default mixing * dielectric matrix)
  average eigenvalue GAMMA=   0.4457
  0.6873  0.6873  0.5625  0.5625  0.2401  0.2401  0.1403

 Free energy of the ion-electron system (eV)
  ---------------------------------------------------
  alpha Z        PSCENC =      1230.05567093
  Ewald energy   TEWEN  =    -11534.45390572
  -Hartree energ DENC   =     -2956.06582604
  -exchange      EXHF   =         0.00000000
  -V(xc)+E(xc)   XCENC  =      -886.76257979
  PAW double counting   =     19417.74736252   -17910.38261903
  entropy T*S    EENTRO =        -0.00720316
  eigenvalues    EBANDS =      -685.11171000
  atomic energy  EATOM  =     13005.90793652
  Solvation  Ediel_sol  =         0.00000000
  ---------------------------------------------------
  free energy    TOTEN  =      -319.07287377 eV

  energy without entropy =     -319.06567060  energy(sigma->0) =     -319.07047271


--------------------------------------------------------------------------------------------------------




--------------------------------------- Iteration      1(   9)  ---------------------------------------


[...]
    114       8.0082     -0.00000
    115       8.0708     -0.00000
    116       8.1281     -0.00000
    117       8.1900     -0.00000
    118       8.2657     -0.00000
    119       8.2985     -0.00000
    120       8.3443     -0.00000

 k-point    63 :      -0.2000   -0.2000    0.4000
  band No.  band energies     occupation 
      1     -47.2241      2.00000
      2     -47.2000      2.00000
      3     -47.1569      2.00000
      4     -47.1028      2.00000
      5     -47.0694      2.00000
      6     -46.9882      2.00000
      7     -23.9026      2.00000
      8     -23.8285      2.00000
      9     -23.6743      2.00000
     10     -23.6269      2.00000
     11     -23.3971      2.00000
     12     -23.3934      2.00000
     13     -23.3855      2.00000
     14     -23.3387      2.00000
     15     -23.3180      2.00000
     16     -23.3048      2.00000
     17     -23.2704      2.00000
     18     -23.2271      2.00000
     19     -23.1995      2.00000
     20     -23.1678      2.00000
     21     -23.0217      2.00000
     22     -22.9994      2.00000
     23     -22.8454      2.00000
     24     -22.7433      2.00000
     25       0.4964      2.00000
     26       0.7812      2.00000
     27       2.3572      2.00000
     28       2.5549      2.00000
     29       2.6101      2.00000
     30       2.7519      2.00000
     31       2.8527      2.00000
     32       2.8710      2.00000
     33       3.0355      2.00000
     34       3.0846      2.00000
     35       3.1547      2.00000
     36       3.1969      2.00000
     37       3.2446      2.00000
     38       3.3146      2.00000
     39       3.3563      2.00000
     40       3.4501      2.00000
     41       3.4936      2.00000
     42       3.5261      2.00000
     43       3.6203      2.00000
     44       3.6734      2.00000
     45       3.7830      2.00000
     46       3.8100      2.00000
     47       4.0184      2.00000
     48       4.0571      2.00000
     49       4.1463      2.00000
     50       4.1670      2.00000
     51       4.2194      2.00000
     52       4.2936      2.00000
     53       4.3148      2.00000
     54       4.3916      2.00000
     55       4.4583      2.00000
     56       4.5469      2.00000
     57       4.6913      2.00000
     58       4.7843      2.00000
     59       4.8616      2.00000
     60       4.9459      2.00000
     61       4.9733      2.00000
     62       5.0218      2.00000
     63       5.0404      2.00000
     64       5.1004      2.00000
     65       5.1543      2.00000
     66       5.1850      2.00000
     67       5.2350      2.00000
     68       5.2938      2.00000
     69       5.3388      2.00000
     70       5.3593      2.00000
     71       5.4766      2.00000
     72       5.5267      2.00000
     73       5.5550      2.00000
     74       5.5889      2.00000
     75       5.6707      2.00000
     76       5.7092      2.00000
     77       5.7423      2.00000
     78       5.7801      2.00000
     79       5.8433      2.00000
     80       5.8789      2.00000
     81       5.9521      2.00000
     82       6.0100      2.00000
     83       6.0555      2.00002
     84       6.1084      2.00009
     85       6.1411      2.00023
     86       6.1787      2.00063
     87       6.2364      2.00251
     88       6.2400      2.00271
     89       6.3070      2.01029
     90       6.3396      2.01780
     91       6.3742      2.02939
     92       6.3963      2.03861
     93       6.4470      2.06131
     94       6.4913      2.07082
     95       6.5052      2.06835
     96       6.5421      2.03937
     97       6.5667      1.99506
     98       6.5993      1.89630
     99       6.6193      1.80998
    100       6.7491      0.86281
    101       6.8367      0.23904
    102       6.9059     -0.00979
    103       6.9278     -0.04459
    104       7.0149     -0.06280
    105       7.0925     -0.02900
    106       7.2081     -0.00396
    107       7.2963     -0.00050
    108       7.3887     -0.00004
    109       7.6355     -0.00000
    110       7.7495     -0.00000
    111       7.8151     -0.00000
    112       7.8773     -0.00000
    113       7.9996     -0.00000
    114       8.4015     -0.00000
    115       8.4628     -0.00000
    116       8.5246     -0.00000
    117       8.6229     -0.00000
    118       8.6546     -0.00000
    119       8.7047     -0.00000
    120       8.7574     -0.00000


--------------------------------------------------------------------------------------------------------


 soft charge-density along one line, spin component           1
         0         1         2         3         4         5         6         7         8         9
 total charge-density along one line
 
 pseudopotential strength for first ion, spin component:           1
  5.466 -20.848   0.002   0.001  -0.000  -0.005  -0.002   0.001
-20.848   9.737   0.003   0.002  -0.001  -0.000  -0.000   0.000
  0.002   0.003 -10.502  -0.001   0.003   6.739   0.001  -0.003
  0.001   0.002  -0.001 -10.501  -0.005   0.001   6.738   0.005
 -0.000  -0.001   0.003  -0.005 -10.503  -0.003   0.005   6.740
 -0.005  -0.000   6.739   0.001  -0.003   7.480  -0.001   0.002
 -0.002  -0.000   0.001   6.738   0.005  -0.001   7.481  -0.004
  0.001   0.000  -0.003   0.005   6.740   0.002  -0.004   7.479
  0.002   0.001  -0.000  -0.000   0.002   0.001   0.000  -0.003
 -0.001  -0.000   0.001   0.002  -0.000  -0.001  -0.003   0.000
  0.001   0.000  -0.001   0.001   0.000   0.001  -0.001  -0.000
 -0.004  -0.001  -0.000  -0.000   0.001   0.000   0.001  -0.001
 -0.000  -0.000  -0.002   0.000  -0.000   0.002  -0.000   0.000
  0.003   0.001  -0.000  -0.000   0.002   0.001   0.001  -0.004
 -0.001  -0.000   0.001   0.003  -0.000  -0.002  -0.004   0.001
  0.001   0.001  -0.001   0.001   0.000   0.002  -0.002  -0.000
 -0.005  -0.002  -0.000  -0.000   0.001   0.001   0.001  -0.002
 -0.000  -0.000  -0.002   0.000  -0.000   0.003  -0.000   0.000
 total augmentation occupancy for first ion, spin component:           1
  1.997  -0.033  -0.000  -0.000   0.000  -0.000  -0.000   0.000   0.006  -0.004   0.001  -0.009  -0.001  -0.005   0.003  -0.001
 -0.033   1.569  -0.003  -0.002   0.003   0.002   0.000  -0.005   0.015  -0.024  -0.017  -0.039  -0.005  -0.006   0.009   0.007
 -0.000  -0.003   1.998   0.000  -0.000  -0.022  -0.001   0.001   0.008  -0.005  -0.001   0.006  -0.003  -0.005   0.003   0.001
 -0.000  -0.002   0.000   1.998  -0.000  -0.001  -0.022   0.001   0.004  -0.002   0.000   0.007   0.001  -0.003   0.001  -0.000
  0.000   0.003  -0.000  -0.000   1.998   0.001   0.001  -0.022  -0.006   0.006  -0.001  -0.001   0.000   0.003  -0.004   0.000
 -0.000   0.002  -0.022  -0.001   0.001   0.067   0.001  -0.001  -0.007   0.007  -0.000  -0.005   0.003   0.004  -0.003   0.000
 -0.000   0.000  -0.001  -0.022   0.001   0.001   0.067  -0.005  -0.000  -0.005  -0.003  -0.007  -0.000   0.000   0.001   0.001
  0.000  -0.005   0.001   0.001  -0.022  -0.001  -0.005   0.068   0.004  -0.005   0.005  -0.001  -0.004  -0.001   0.002  -0.003
  0.006   0.015   0.008   0.004  -0.006  -0.007  -0.000   0.004   2.826  -0.260  -0.046  -0.019  -0.007  -1.101   0.121   0.018
 -0.004  -0.024  -0.005  -0.002   0.006   0.007  -0.005  -0.005  -0.260   2.849  -0.018   0.035   0.026   0.121  -1.106   0.007
  0.001  -0.017  -0.001   0.000  -0.001  -0.000  -0.003   0.005  -0.046  -0.018   2.603  -0.019   0.017   0.018   0.007  -1.104
 -0.009  -0.039   0.006   0.007  -0.001  -0.005  -0.007  -0.001  -0.019   0.035  -0.019   2.829  -0.038   0.005  -0.011   0.019
 -0.001  -0.005  -0.003   0.001   0.000   0.003  -0.000  -0.004  -0.007   0.026   0.017  -0.038   2.613   0.002  -0.011  -0.009
 -0.005  -0.006  -0.005  -0.003   0.003   0.004   0.000  -0.001  -1.101   0.121   0.018   0.005   0.002   0.444  -0.055  -0.007
  0.003   0.009   0.003   0.001  -0.004  -0.003   0.001   0.002   0.121  -1.106   0.007  -0.011  -0.011  -0.055   0.445  -0.003
 -0.001   0.007   0.001  -0.000   0.000   0.000   0.001  -0.003   0.018   0.007  -1.104   0.019  -0.009  -0.007  -0.003   0.478
  0.008   0.040  -0.004  -0.004   0.001   0.002   0.004  -0.001   0.005  -0.011   0.019  -1.096   0.036  -0.002   0.004  -0.013
  0.001   0.006   0.003  -0.001  -0.000  -0.001  -0.000   0.004   0.002  -0.011  -0.009   0.037  -1.109  -0.000   0.005   0.005


------------------------ aborting loop because EDIFF is reached ----------------------------------------


    CHARGE:  cpu time    0.6695: real time    0.6702
    FORLOC:  cpu time    0.0064: real time    0.0064
    FORNL :  cpu time    4.0209: real time    4.0239
    STRESS:  cpu time   12.0801: real time   12.0892
    FORCOR:  cpu time    0.0295: real time    0.0305
    FORHAR:  cpu time    0.0109: real time    0.0109
    MIXING:  cpu time    0.0019: real time    0.0019
    OFIELD:  cpu time    0.0001: real time    0.0001

  FORCE on cell =-STRESS in cart. coord.  units (eV):
  Direction    XX          YY          ZZ          XY          YZ          ZX
  --------------------------------------------------------------------------------------
  Alpha Z  1230.05567  1230.05567  1230.05567
  Ewald   -3804.42453 -3486.76244 -4243.29656  -129.12493   446.34293   308.79687
  Hartree  1041.03511  1286.89702   627.15045  -109.07924   401.71569   302.50174
  E(xc)    -893.11499  -892.85462  -893.00762    -0.05262    -0.04860    -0.37170
  Local    -366.30821  -930.40320   486.59248   238.22853  -847.84697  -609.44798
  n-local  -277.68934  -277.86752  -277.66003     0.41593     0.16876     1.17507
  augment   329.65932   329.63371   329.44110    -0.03252    -0.03116    -0.33996
  Kinetic  2742.40900  2742.01349  2741.86503    -1.50217    -0.45785    -1.95579
  Fock        0.00000     0.00000     0.00000     0.00000     0.00000     0.00000
  -------------------------------------------------------------------------------------
  Total       1.62204     0.71212     1.14051    -1.14702    -0.15720     0.35824
  in kB       5.49059     2.41051     3.86062    -3.88266    -0.53213     1.21265
  external pressure =        3.92 kB  Pullay stress =        0.00 kB


 VOLUME and BASIS-vectors are now :
 -----------------------------------------------------------------------------
  energy-cutoff  :      600.00
  volume of cell :      473.32
      direct lattice vectors                 reciprocal lattice vectors
    -3.160000000 -3.160000000 -3.160000000    -0.137130802 -0.126582278 -0.052742616
     1.580000000  1.580000000 -7.900000000     0.042194093  0.063291139 -0.105485232
     7.900000000 -7.900000000 -1.580000000     0.063291139 -0.063291139  0.000000000

  length of vectors
     5.473280552  8.209920828 11.283456917     0.193932240  0.130050928  0.089507187


 FORCES acting on ions
    electron-ion (+dipol)            ewald-force                    non-local-force                 convergence-correction
 -----------------------------------------------------------------------------------------------
   0.152E+03 0.413E+02 -.195E+03   -.152E+03 -.407E+02 0.195E+03   0.384E+00 -.244E+00 -.135E+00   -.501E-01 0.765E-01 -.103E+00
   -.811E+02 -.190E+03 0.112E+03   0.815E+02 0.190E+03 -.112E+03   0.981E-02 -.127E-01 -.197E+00   -.819E-01 0.246E-01 0.652E-01
   -.253E+02 0.820E+02 -.280E+02   0.250E+02 -.815E+02 0.279E+02   0.125E+00 -.140E-01 -.226E+00   0.629E-01 -.108E+00 0.460E-01
   -.615E+02 0.106E+03 -.805E+02   0.618E+02 -.106E+03 0.806E+02   -.763E-01 0.611E-01 -.205E+00   0.447E-01 -.115E+00 0.696E-01
   -.233E+02 -.110E+03 0.254E+03   0.235E+02 0.111E+03 -.255E+03   0.268E-01 0.269E+00 -.185E+00   -.213E+00 -.161E+00 0.235E+00
   0.390E+01 0.776E+02 -.280E+02   -.431E+01 -.774E+02 0.276E+02   0.346E+00 0.471E-01 0.282E-01   -.145E+00 0.117E+00 -.256E-01
   0.118E+02 0.482E+02 -.931E+02   -.117E+02 -.486E+02 0.932E+02   -.117E+00 -.147E+00 0.130E+00   0.172E-01 0.565E-02 -.242E-01
   -.163E+02 0.585E+01 0.129E+02   0.161E+02 -.616E+01 -.125E+02   -.250E+00 -.493E-01 0.224E+00   -.554E-01 0.347E-01 0.137E-01
   0.403E+02 -.506E+02 0.430E+02   -.404E+02 0.509E+02 -.429E+02   -.525E-01 0.137E-01 -.125E+00   0.326E-01 -.383E-01 0.444E-02
   -.844E+02 -.639E+02 0.108E+03   0.842E+02 0.645E+02 -.109E+03   0.249E+00 0.258E-01 -.130E+00   0.103E+00 -.123E+00 0.726E-01
   0.321E+02 0.936E+02 -.714E+02   -.322E+02 -.939E+02 0.719E+02   -.962E-01 -.164E+00 -.222E+00   -.280E-01 0.134E+00 -.377E-01
   0.383E+02 -.516E+02 0.868E+02   -.385E+02 0.518E+02 -.873E+02   0.303E+00 -.300E-01 -.223E+00   -.377E-01 -.715E-02 0.355E-01
   0.553E+02 0.375E+02 -.804E+02   -.553E+02 -.375E+02 0.806E+02   -.997E-02 -.484E+00 0.375E+00   0.106E+00 -.620E-01 -.797E-01
   0.529E+02 0.229E+02 -.133E+03   -.526E+02 -.228E+02 0.133E+03   -.132E+00 0.254E+00 0.920E-01   0.289E-01 0.539E-02 -.774E-01
   -.381E+02 -.364E+02 0.127E+02   0.378E+02 0.368E+02 -.128E+02   0.728E-01 0.156E+00 -.398E-01   0.318E-01 -.395E-01 0.196E-01
   0.270E+00 0.610E+02 -.456E+02   -.701E+00 -.609E+02 0.460E+02   -.287E+00 -.142E+00 0.380E+00   0.168E-01 -.205E-02 -.159E-01
   0.101E+03 0.479E+02 -.986E+02   -.102E+03 -.480E+02 0.993E+02   -.377E+00 -.633E-01 0.316E-01   0.726E-01 0.467E-01 -.716E-01
   -.535E+01 0.523E+01 -.367E+01   0.561E+01 -.532E+01 0.333E+01   0.117E+00 -.267E+00 0.161E+00   -.258E-01 0.260E-01 0.480E-02
   -.167E+02 0.470E+02 -.649E+02   0.170E+02 -.470E+02 0.653E+02   -.159E+00 0.675E-01 0.185E+00   -.556E-01 0.699E-01 -.627E-01
   0.307E+02 0.926E+01 -.382E+02   -.302E+02 -.969E+01 0.383E+02   -.602E-02 -.169E+00 0.876E-01   0.450E-02 0.434E-01 -.247E-01
   -.549E+02 -.174E+02 0.951E+02   0.551E+02 0.172E+02 -.955E+02   -.218E+00 0.931E-01 -.683E-01   0.314E-01 -.799E-01 0.204E-01
   -.702E+01 -.863E+01 0.207E+02   0.687E+01 0.847E+01 -.209E+02   -.235E+00 0.111E+00 -.502E-01   0.275E-02 0.640E-02 -.111E-01
   -.276E+02 -.246E+02 0.771E+02   0.274E+02 0.245E+02 -.767E+02   0.106E+00 -.381E-01 0.184E-01   -.918E-01 0.292E-01 0.363E-01
   0.444E+01 -.537E+01 0.554E+02   -.404E+01 0.519E+01 -.561E+02   0.208E+00 0.983E-01 -.220E+00   0.269E-01 -.401E-01 0.395E-02
   -.230E+02 -.359E+02 0.474E+02   0.229E+02 0.356E+02 -.471E+02   0.220E+00 -.142E-01 0.379E+00   0.107E-01 0.185E-02 -.858E-02
   -.828E+02 -.347E+02 0.910E+02   0.837E+02 0.347E+02 -.917E+02   -.139E+00 0.741E-01 0.187E+00   -.106E+00 0.674E-01 0.824E-01
   -.196E+02 -.759E+02 0.607E+02   0.195E+02 0.763E+02 -.610E+02   0.107E+00 -.422E-01 -.939E-02   -.291E-01 -.202E-01 0.898E-01
   -.189E+02 0.277E+02 -.357E+02   0.191E+02 -.283E+02 0.353E+02   -.100E-01 0.980E-01 -.132E+00   -.317E-01 0.581E-01 -.553E-02
   0.480E+02 0.343E+02 -.871E+02   -.483E+02 -.345E+02 0.876E+02   -.570E-01 -.126E+00 0.129E+00   0.103E+00 -.256E-01 -.467E-01
   0.152E+02 -.421E+02 0.495E+01   -.152E+02 0.424E+02 -.502E+01   0.144E+00 0.213E-01 -.101E+00   0.333E-01 -.375E-01 0.746E-02
 -----------------------------------------------------------------------------------------------
   0.393E-01 0.738E+00 -.358E+00   -.320E-13 -.924E-13 -.213E-13   0.197E+00 -.617E+00 0.138E+00   -.223E+00 -.112E+00 0.212E+00
 
 
 POSITION                                       TOTAL-FORCE (eV/Angst)
 -----------------------------------------------------------------------------------
      1.58000     -4.74000    -11.06000         0.090487      0.446709      0.227070
      1.58000     -4.74000     -4.74000         0.349280     -0.164948      0.017982
     -1.58000     -1.58000     -1.58000        -0.110607      0.398132     -0.250071
      0.00000      0.00000      0.00000         0.254750     -0.031339     -0.050396
      6.32000     -6.32000     -3.16000        -0.028936      0.745020     -0.604858
      4.74000     -4.74000     -1.58000        -0.206910      0.285911     -0.358445
      0.00000     -3.16000     -9.48000        -0.029547     -0.577373      0.197494
      1.58000     -4.74000     -7.90000        -0.522300     -0.322950      0.582231
      0.00000     -3.16000     -6.32000        -0.190891      0.278565      0.056603
     -1.58000     -1.58000     -4.74000         0.170916      0.573552     -0.602609
      4.74000     -4.74000     -7.90000        -0.167380     -0.422978      0.267382
      3.16000     -3.16000     -3.16000         0.127386      0.175219     -0.627499
     -1.58000     -1.58000     -7.90000         0.045730     -0.502309      0.498051
      4.74000     -7.90000    -11.06000         0.198034      0.380656     -0.050775
     -0.00000     -3.16000     -3.16000        -0.207436      0.505283     -0.127491
      1.58000     -1.58000     -7.90000        -0.702385     -0.106359      0.790121
      6.32000     -6.32000     -9.48000        -0.895981     -0.142816      0.639201
      3.16000     -3.16000     -6.32000         0.347534     -0.329582     -0.174680
      3.16000     -6.32000     -9.48000         0.088586      0.205530      0.531126
      3.16000     -3.16000     -9.48000         0.563019     -0.561394      0.115299
     -0.00000     -0.00000     -3.16000        -0.035727     -0.171761     -0.426157
      6.32000     -6.32000     -6.32000        -0.386244     -0.043202     -0.243134
      4.74000     -4.74000     -4.74000        -0.197916     -0.102156      0.498793
      1.58000     -1.58000     -1.58000         0.631125     -0.120377     -0.863370
      4.74000     -7.90000     -7.90000         0.047161     -0.343780      0.607474
      3.16000     -6.32000     -6.32000         0.588812      0.097487     -0.397928
      4.74000     -7.90000     -4.74000         0.009068      0.297316     -0.229652
      3.16000     -6.32000     -3.16000         0.195092     -0.444871     -0.481833
      0.00000      0.00000     -6.32000        -0.250951     -0.264902      0.623983
      1.58000     -1.58000     -4.74000         0.226232      0.263715     -0.163914
 -----------------------------------------------------------------------------------
    total drift:                                0.013688      0.009057     -0.008667


--------------------------------------------------------------------------------------------------------



  FREE ENERGIE OF THE ION-ELECTRON SYSTEM (eV)
  ---------------------------------------------------
  free  energy   TOTEN  =      -318.80978241 eV

  energy  without entropy=     -318.79728020  energy(sigma->0) =     -318.80561500
 


--------------------------------------------------------------------------------------------------------


    POTLOK:  cpu time    0.0279: real time    0.0279


--------------------------------------------------------------------------------------------------------


 stress matrix after NEB project (eV)
      1.62204     -1.14702      0.35824
     -1.14702      0.71212     -0.15720
      0.35824     -0.15720      1.14051
  FORCES: max atom, RMS     1.109845    0.665755
  FORCE total and by dimension    3.646491    0.895981
  Stress total and by dimension    2.715933    1.622038
 writing wavefunctions
     LOOP+:  cpu time  583.3209: real time  588.6982
    4ORBIT:  cpu time    0.0000: real time    0.0000

 total amount of memory used by VASP MPI-rank0   106611. kBytes
=======================================================================

   base      :      30000. kBytes
   nonlr-proj:       7321. kBytes
   fftplans  :       2328. kBytes
   grid      :       4665. kBytes
   one-center:        124. kBytes
   wavefun   :      62173. kBytes
 
  
  
 General timing and accounting informations for this job:
 ========================================================
  
                  Total CPU time used (sec):      592.823
                            User time (sec):      586.635
                          System time (sec):        6.188
                         Elapsed time (sec):      606.249
  
                   Maximum memory used (kb):      154640.
                   Average memory used (kb):           0.
  
                          Minor page faults:        61225
                          Major page faults:           21
                 Voluntary context switches:         2789
