 running on   32 total cores
 distrk:  each k-point on   32 cores,    1 groups
 distr:  one band on    4 cores,    8 groups
 using from now: INCAR     
 vasp.5.4.4.18Apr17-6-g9f103f2a35 (build Aug 09 2018 16:20:53) complex          
  
 POSCAR found type information on POSCAR  Nb Mo Ta Ti V 
 POSCAR found :  5 types and      30 ions
 scaLAPACK will be used

 ----------------------------------------------------------------------------- 
|                                                                             |
|  ADVICE TO THIS USER RUNNING 'VASP/VAMP'   (HEAR YOUR MASTER'S VOICE ...):  |
|                                                                             |
|      You enforced a specific xc-type in the INCAR file,                     |
|      a different type was found on the POTCAR file                          |
|          I HOPE YOU KNOW, WHAT YOU ARE  DOING                               |
|                                                                             |
 ----------------------------------------------------------------------------- 

 LDA part: xc-table for Pade appr. of Perdew
 POSCAR found type information on POSCAR  Nb Mo Ta Ti V 
 POSCAR found :  5 types and      30 ions
 found WAVECAR, reading the header
 POSCAR, INCAR and KPOINTS ok, starting setup
 FFT: planning ...
 reading WAVECAR
 the WAVECAR file was read successfully
 charge-density read from file: Nb                                      
 entering main loop
       N       E                     dE             d eps       ncg     rms          rms(c)
DAV:   1    -0.329487663644E+03   -0.32949E+03   -0.22643E+00 27784   0.795E+00    0.328E+01
DAV:   2    -0.379833213484E+03   -0.50346E+02   -0.10141E+03 21632   0.266E+02    0.343E+01
DAV:   3    -0.348888921910E+03    0.30944E+02   -0.24387E+02 24216   0.952E+01    0.280E+01
DAV:   4    -0.331028640028E+03    0.17860E+02   -0.49648E+01 26184   0.272E+01    0.199E+01
DAV:   5    -0.325602624952E+03    0.54260E+01   -0.14141E+01 26704   0.155E+01    0.168E+01
DAV:   6    -0.320949529362E+03    0.46531E+01   -0.12614E+01 24400   0.150E+01    0.125E+01
DAV:   7    -0.319081183836E+03    0.18683E+01   -0.12081E+01 25816   0.127E+01    0.556E+00
DAV:   8    -0.319072873767E+03    0.83101E-02   -0.32786E+00 25336   0.668E+00    0.507E+00
DAV:   9    -0.319058884227E+03    0.13990E-01   -0.13889E+00 25776   0.471E+00    0.507E+00
DAV:  10    -0.318967344678E+03    0.91540E-01   -0.12763E+00 23872   0.516E+00    0.417E+00
DAV:  11    -0.319042469658E+03   -0.75125E-01   -0.25852E+00 23912   0.683E+00    0.503E+00
DAV:  12    -0.318927705191E+03    0.11476E+00   -0.62711E-01 24928   0.378E+00    0.368E+00
DAV:  13    -0.318843878011E+03    0.83827E-01   -0.49692E-01 24696   0.295E+00    0.201E+00
DAV:  14    -0.318820347831E+03    0.23530E-01   -0.25350E-01 24640   0.218E+00    0.100E+00
DAV:  15    -0.318817956067E+03    0.23918E-02   -0.16811E-01 24608   0.166E+00    0.825E-01
DAV:  16    -0.318817107833E+03    0.84823E-03   -0.50054E-02 22800   0.961E-01    0.850E-01
DAV:  17    -0.318811036936E+03    0.60709E-02   -0.27124E-02 21584   0.735E-01    0.339E-01
DAV:  18    -0.318809993243E+03    0.10437E-02   -0.50723E-03 22912   0.284E-01    0.169E-01
DAV:  19    -0.318809800589E+03    0.19265E-03   -0.25004E-03 21752   0.206E-01    0.954E-02
DAV:  20    -0.318809782407E+03    0.18182E-04   -0.87504E-04 18664   0.123E-01
   1 F= -.31880978E+03 E0= -.31880562E+03  d E =-.125022E-01
 writing wavefunctions
VASP is done!
