<?xml version="1.0" encoding="ISO-8859-1"?>
<modeling>
 <generator>
  <i name="program" type="string">vasp </i>
  <i name="version" type="string">5.4.4.18Apr17-6-g9f103f2a35  </i>
  <i name="subversion" type="string">(build Aug 09 2018 16:20:53) complex            parallel </i>
  <i name="platform" type="string">LinuxIFC </i>
  <i name="date" type="string">2020 04 28 </i>
  <i name="time" type="string">21:06:14 </i>
 </generator>
 <incar>
  <i type="string" name="SYSTEM"> Nb - Mo - Ta - Ti - V SQS</i>
  <i type="string" name="PREC">normal</i>
  <i type="int" name="ICHARG">     1</i>
  <i type="int" name="NELM">   100</i>
  <i type="int" name="IBRION">     2</i>
  <i name="ENCUT">    600.00000000</i>
  <i type="string" name="LREAL"> Auto</i>
  <i type="int" name="ISMEAR">     1</i>
  <i name="SIGMA">      0.20000000</i>
  <v type="int" name="KPOINT_BSE">    -1     0     0     0</v>
  <i type="int" name="NELM">   100</i>
  <i type="string" name="GGA"> PS</i>
 </incar>
 <structure name="primitive_cell" >
  <crystal>
   <varray name="basis" >
    <v>      -3.16000000      -3.16000000      -3.16000000 </v>
    <v>       1.58000000       1.58000000      -7.90000000 </v>
    <v>       7.90000000      -7.90000000      -1.58000000 </v>
   </varray>
   <i name="volume">    473.31744000 </i>
   <varray name="rec_basis" >
    <v>      -0.13713080      -0.12658228      -0.05274262 </v>
    <v>       0.04219409       0.06329114      -0.10548523 </v>
    <v>       0.06329114      -0.06329114       0.00000000 </v>
   </varray>
  </crystal>
  <varray name="positions" >
   <v>      -0.03333333      -0.06666667       0.40000000 </v>
   <v>       0.30000000      -0.40000000       0.40000000 </v>
   <v>      -0.10000000      -0.20000000       0.20000000 </v>
   <v>       0.06666667       0.13333333       0.20000000 </v>
   <v>       0.46666667      -0.06666667       0.40000000 </v>
   <v>      -0.13333333      -0.26666667      -0.40000000 </v>
   <v>       0.03333333       0.06666667      -0.40000000 </v>
   <v>      -0.36666667       0.26666667       0.40000000 </v>
   <v>       0.40000000      -0.20000000       0.20000000 </v>
   <v>      -0.20000000      -0.40000000       0.40000000 </v>
   <v>      -0.43333333       0.13333333       0.20000000 </v>
   <v>       0.36666667      -0.26666667      -0.40000000 </v>
   <v>       0.13333333       0.26666667       0.40000000 </v>
   <v>      -0.46666667       0.06666667      -0.40000000 </v>
   <v>       0.23333333       0.46666667       0.20000000 </v>
   <v>       0.20000000       0.40000000      -0.40000000 </v>
   <v>       0.00000000       0.00000000       0.00000000 </v>
   <v>      -0.06666667      -0.13333333      -0.20000000 </v>
   <v>      -0.30000000       0.40000000      -0.40000000 </v>
   <v>      -0.26666667       0.46666667       0.20000000 </v>
   <v>       0.33333333      -0.33333333       0.00000000 </v>
   <v>       0.43333333      -0.13333333      -0.20000000 </v>
   <v>      -0.50000000       0.00000000       0.00000000 </v>
   <v>       0.26666667      -0.46666667      -0.20000000 </v>
   <v>      -0.33333333       0.33333333       0.00000000 </v>
   <v>      -0.40000000       0.20000000      -0.20000000 </v>
   <v>      -0.16666667      -0.33333333       0.00000000 </v>
   <v>      -0.23333333      -0.46666667      -0.20000000 </v>
   <v>       0.16666667       0.33333333       0.00000000 </v>
   <v>       0.10000000       0.20000000      -0.20000000 </v>
  </varray>
 </structure>
 <varray name="primitive_index" >
  <v type="int" >        1 </v>
  <v type="int" >       18 </v>
  <v type="int" >        7 </v>
  <v type="int" >       24 </v>
  <v type="int" >       20 </v>
  <v type="int" >       19 </v>
  <v type="int" >        6 </v>
  <v type="int" >        2 </v>
  <v type="int" >       16 </v>
  <v type="int" >        8 </v>
  <v type="int" >       15 </v>
  <v type="int" >       11 </v>
  <v type="int" >       12 </v>
  <v type="int" >       28 </v>
  <v type="int" >       30 </v>
  <v type="int" >       23 </v>
  <v type="int" >        4 </v>
  <v type="int" >       14 </v>
  <v type="int" >       26 </v>
  <v type="int" >        9 </v>
  <v type="int" >       29 </v>
  <v type="int" >       17 </v>
  <v type="int" >        3 </v>
  <v type="int" >       22 </v>
  <v type="int" >       10 </v>
  <v type="int" >       27 </v>
  <v type="int" >       13 </v>
  <v type="int" >       25 </v>
  <v type="int" >       21 </v>
  <v type="int" >        5 </v>
 </varray>
 <kpoints>
  <generation param="Gamma">
   <v type="int" name="divisions">       5        5        5 </v>
   <v name="usershift">      0.00000000       0.00000000       0.00000000 </v>
   <v name="genvec1">      0.20000000      -0.00000000       0.00000000 </v>
   <v name="genvec2">     -0.00000000       0.20000000      -0.00000000 </v>
   <v name="genvec3">      0.00000000       0.00000000       0.20000000 </v>
   <v name="shift">      0.00000000       0.00000000       0.00000000 </v>
  </generation>
  <varray name="kpointlist" >
   <v>       0.00000000       0.00000000       0.00000000 </v>
   <v>       0.20000000       0.00000000       0.00000000 </v>
   <v>       0.40000000       0.00000000       0.00000000 </v>
   <v>       0.00000000       0.20000000       0.00000000 </v>
   <v>       0.20000000       0.20000000      -0.00000000 </v>
   <v>       0.40000000       0.20000000      -0.00000000 </v>
   <v>      -0.40000000       0.20000000       0.00000000 </v>
   <v>      -0.20000000       0.20000000       0.00000000 </v>
   <v>       0.00000000       0.40000000       0.00000000 </v>
   <v>       0.20000000       0.40000000      -0.00000000 </v>
   <v>       0.40000000       0.40000000      -0.00000000 </v>
   <v>      -0.40000000       0.40000000       0.00000000 </v>
   <v>      -0.20000000       0.40000000      -0.00000000 </v>
   <v>       0.00000000       0.00000000       0.20000000 </v>
   <v>       0.20000000       0.00000000       0.20000000 </v>
   <v>       0.40000000       0.00000000       0.20000000 </v>
   <v>      -0.40000000       0.00000000       0.20000000 </v>
   <v>      -0.20000000       0.00000000       0.20000000 </v>
   <v>       0.00000000       0.20000000       0.20000000 </v>
   <v>       0.20000000       0.20000000       0.20000000 </v>
   <v>       0.40000000       0.20000000       0.20000000 </v>
   <v>      -0.40000000       0.20000000       0.20000000 </v>
   <v>      -0.20000000       0.20000000       0.20000000 </v>
   <v>       0.00000000       0.40000000       0.20000000 </v>
   <v>       0.20000000       0.40000000       0.20000000 </v>
   <v>       0.40000000       0.40000000       0.20000000 </v>
   <v>      -0.40000000       0.40000000       0.20000000 </v>
   <v>      -0.20000000       0.40000000       0.20000000 </v>
   <v>       0.00000000      -0.40000000       0.20000000 </v>
   <v>       0.20000000      -0.40000000       0.20000000 </v>
   <v>       0.40000000      -0.40000000       0.20000000 </v>
   <v>      -0.40000000      -0.40000000       0.20000000 </v>
   <v>      -0.20000000      -0.40000000       0.20000000 </v>
   <v>       0.00000000      -0.20000000       0.20000000 </v>
   <v>       0.20000000      -0.20000000       0.20000000 </v>
   <v>       0.40000000      -0.20000000       0.20000000 </v>
   <v>      -0.40000000      -0.20000000       0.20000000 </v>
   <v>      -0.20000000      -0.20000000       0.20000000 </v>
   <v>       0.00000000       0.00000000       0.40000000 </v>
   <v>       0.20000000       0.00000000       0.40000000 </v>
   <v>       0.40000000       0.00000000       0.40000000 </v>
   <v>      -0.40000000       0.00000000       0.40000000 </v>
   <v>      -0.20000000       0.00000000       0.40000000 </v>
   <v>      -0.00000000       0.20000000       0.40000000 </v>
   <v>       0.20000000       0.20000000       0.40000000 </v>
   <v>       0.40000000       0.20000000       0.40000000 </v>
   <v>      -0.40000000       0.20000000       0.40000000 </v>
   <v>      -0.20000000       0.20000000       0.40000000 </v>
   <v>       0.00000000       0.40000000       0.40000000 </v>
   <v>       0.20000000       0.40000000       0.40000000 </v>
   <v>       0.40000000       0.40000000       0.40000000 </v>
   <v>      -0.40000000       0.40000000       0.40000000 </v>
   <v>      -0.20000000       0.40000000       0.40000000 </v>
   <v>       0.00000000      -0.40000000       0.40000000 </v>
   <v>       0.20000000      -0.40000000       0.40000000 </v>
   <v>       0.40000000      -0.40000000       0.40000000 </v>
   <v>      -0.40000000      -0.40000000       0.40000000 </v>
   <v>      -0.20000000      -0.40000000       0.40000000 </v>
   <v>      -0.00000000      -0.20000000       0.40000000 </v>
   <v>       0.20000000      -0.20000000       0.40000000 </v>
   <v>       0.40000000      -0.20000000       0.40000000 </v>
   <v>      -0.40000000      -0.20000000       0.40000000 </v>
   <v>      -0.20000000      -0.20000000       0.40000000 </v>
  </varray>
  <varray name="weights" >
   <v>       0.00800000 </v>
   <v>       0.01600000 </v>
   <v>       0.01600000 </v>
   <v>       0.01600000 </v>
   <v>       0.01600000 </v>
   <v>       0.01600000 </v>
   <v>       0.01600000 </v>
   <v>       0.01600000 </v>
   <v>       0.01600000 </v>
   <v>       0.01600000 </v>
   <v>       0.01600000 </v>
   <v>       0.01600000 </v>
   <v>       0.01600000 </v>
   <v>       0.01600000 </v>
   <v>       0.01600000 </v>
   <v>       0.01600000 </v>
   <v>       0.01600000 </v>
   <v>       0.01600000 </v>
   <v>       0.01600000 </v>
   <v>       0.01600000 </v>
   <v>       0.01600000 </v>
   <v>       0.01600000 </v>
   <v>       0.01600000 </v>
   <v>       0.01600000 </v>
   <v>       0.01600000 </v>
   <v>       0.01600000 </v>
   <v>       0.01600000 </v>
   <v>       0.01600000 </v>
   <v>       0.01600000 </v>
   <v>       0.01600000 </v>
   <v>       0.01600000 </v>
   <v>       0.01600000 </v>
   <v>       0.01600000 </v>
   <v>       0.01600000 </v>
   <v>       0.01600000 </v>
   <v>       0.01600000 </v>
   <v>       0.01600000 </v>
   <v>       0.01600000 </v>
   <v>       0.01600000 </v>
   <v>       0.01600000 </v>
   <v>       0.01600000 </v>
   <v>       0.01600000 </v>
   <v>       0.01600000 </v>
   <v>       0.01600000 </v>
   <v>       0.01600000 </v>
   <v>       0.01600000 </v>
   <v>       0.01600000 </v>
   <v>       0.01600000 </v>
   <v>       0.01600000 </v>
   <v>       0.01600000 </v>
   <v>       0.01600000 </v>
   <v>       0.01600000 </v>
   <v>       0.01600000 </v>
   <v>       0.01600000 </v>
   <v>       0.01600000 </v>
   <v>       0.01600000 </v>
   <v>       0.01600000 </v>
   <v>       0.01600000 </v>
   <v>       0.01600000 </v>
   <v>       0.01600000 </v>
   <v>       0.01600000 </v>
   <v>       0.01600000 </v>
   <v>       0.01600000 </v>
  </varray>
 </kpoints>
 <parameters>
  <separator name="general" >
   <i type="string" name="SYSTEM">Nb - Mo - Ta - Ti - V SQS</i>
   <i type="logical" name="LCOMPAT"> F  </i>
  </separator>
  <separator name="electronic" >
   <i type="string" name="PREC">normal</i>
   <i name="ENMAX">    600.00000000</i>
   <i name="ENAUG">    455.65900000</i>
   <i name="EDIFF">      0.00010000</i>
   <i type="int" name="IALGO">    38</i>
   <i type="int" name="IWAVPR">    10</i>
   <i type="int" name="NBANDS">   120</i>
   <i name="NELECT">    198.00000000</i>
   <i type="int" name="TURBO">     0</i>
   <i type="int" name="IRESTART">     0</i>
   <i type="int" name="NREBOOT">     0</i>
   <i type="int" name="NMIN">     0</i>
   <i name="EREF">      0.00000000</i>
   <separator name="electronic smearing" >
    <i type="int" name="ISMEAR">     1</i>
    <i name="SIGMA">      0.20000000</i>
    <i name="KSPACING">      0.50000000</i>
    <i type="logical" name="KGAMMA"> T  </i>
   </separator>
   <separator name="electronic projectors" >
    <i type="logical" name="LREAL"> T  </i>
    <v name="ROPT">     -0.00050000     -0.00050000     -0.00050000     -0.00050000     -0.00050000</v>
    <i type="int" name="LMAXPAW">  -100</i>
    <i type="int" name="LMAXMIX">     2</i>
    <i type="logical" name="NLSPLINE"> F  </i>
   </separator>
   <separator name="electronic startup" >
    <i type="int" name="ISTART">     1</i>
    <i type="int" name="ICHARG">     1</i>
    <i type="int" name="INIWAV">     1</i>
   </separator>
   <separator name="electronic spin" >
    <i type="int" name="ISPIN">     1</i>
    <i type="logical" name="LNONCOLLINEAR"> F  </i>
    <v name="MAGMOM">      1.00000000      1.00000000      1.00000000      1.00000000      1.00000000      1.00000000      1.00000000      1.00000000      1.00000000      1.00000000      1.00000000      1.00000000      1.00000000      1.00000000      1.00000000      1.00000000      1.00000000      1.00000000      1.00000000      1.00000000
      1.00000000      1.00000000      1.00000000      1.00000000      1.00000000      1.00000000      1.00000000      1.00000000      1.00000000      1.00000000</v>
    <i name="NUPDOWN">     -1.00000000</i>
    <i type="logical" name="LSORBIT"> F  </i>
    <v name="SAXIS">      0.00000000      0.00000000      1.00000000</v>
    <i type="logical" name="LSPIRAL"> F  </i>
    <v name="QSPIRAL">      0.00000000      0.00000000      0.00000000</v>
    <i type="logical" name="LZEROZ"> F  </i>
   </separator>
   <separator name="electronic exchange-correlation" >
    <i type="logical" name="LASPH"> F  </i>
    <i type="logical" name="LMETAGGA"> F  </i>
   </separator>
   <separator name="electronic convergence" >
    <i type="int" name="NELM">   100</i>
    <i type="int" name="NELMDL">     0</i>
    <i type="int" name="NELMIN">     2</i>
    <i name="ENINI">    600.00000000</i>
    <separator name="electronic convergence detail" >
     <i type="logical" name="LDIAG"> T  </i>
     <i type="logical" name="LSUBROT"> F  </i>
     <i name="WEIMIN">      0.00000000</i>
     <i name="EBREAK">      0.00000021</i>
     <i name="DEPER">      0.30000000</i>
     <i type="int" name="NRMM">     4</i>
     <i name="TIME">      0.40000000</i>
    </separator>
   </separator>
   <separator name="electronic mixer" >
    <i name="AMIX">      0.40000000</i>
    <i name="BMIX">      1.00000000</i>
    <i name="AMIN">      0.10000000</i>
    <i name="AMIX_MAG">      1.60000000</i>
    <i name="BMIX_MAG">      1.00000000</i>
    <separator name="electronic mixer details" >
     <i type="int" name="IMIX">     4</i>
     <i type="logical" name="MIXFIRST"> F  </i>
     <i type="int" name="MAXMIX">   -45</i>
     <i name="WC">    100.00000000</i>
     <i type="int" name="INIMIX">     1</i>
     <i type="int" name="MIXPRE">     1</i>
     <i type="int" name="MREMOVE">     5</i>
    </separator>
   </separator>
   <separator name="electronic dipolcorrection" >
    <i type="logical" name="LDIPOL"> F  </i>
    <i type="logical" name="LMONO"> F  </i>
    <i type="int" name="IDIPOL">     0</i>
    <i name="EPSILON">      1.00000000</i>
    <v name="DIPOL">   -100.00000000   -100.00000000   -100.00000000</v>
    <i name="EFIELD">      0.00000000</i>
   </separator>
  </separator>
  <separator name="grids" >
   <i type="int" name="NGX">    36</i>
   <i type="int" name="NGY">    50</i>
   <i type="int" name="NGZ">    70</i>
   <i type="int" name="NGXF">    72</i>
   <i type="int" name="NGYF">   100</i>
   <i type="int" name="NGZF">   140</i>
   <i type="logical" name="ADDGRID"> F  </i>
  </separator>
  <separator name="ionic" >
   <i type="int" name="NSW">     0</i>
   <i type="int" name="IBRION">    -1</i>
   <i type="int" name="MDALGO">     0</i>
   <i type="int" name="ISIF">     2</i>
   <i name="PSTRESS">      0.00000000</i>
   <i name="EDIFFG">      0.00100000</i>
   <i type="int" name="NFREE">     1</i>
   <i name="POTIM">      0.50000000</i>
   <i name="SMASS">     -3.00000000</i>
   <i name="SCALEE">      1.00000000</i>
  </separator>
  <separator name="ionic md" >
   <i name="TEBEG">      0.00010000</i>
   <i name="TEEND">      0.00010000</i>
   <i type="int" name="NBLOCK">     1</i>
   <i type="int" name="KBLOCK">     1</i>
   <i type="int" name="NPACO">   256</i>
   <i name="APACO">     16.00000000</i>
  </separator>
  <separator name="symmetry" >
   <i type="int" name="ISYM">     2</i>
   <i name="SYMPREC">      0.00001000</i>
  </separator>
  <separator name="dos" >
   <i type="int" name="LORBIT">     0</i>
   <v name="RWIGS">     -1.00000000     -1.00000000     -1.00000000     -1.00000000     -1.00000000</v>
   <i type="int" name="NEDOS">   301</i>
   <i name="EMIN">     10.00000000</i>
   <i name="EMAX">    -10.00000000</i>
   <i name="EFERMI">      0.00000000</i>
  </separator>
  <separator name="writing" >
   <i type="int" name="NWRITE">     2</i>
   <i type="logical" name="LWAVE"> T  </i>
   <i type="logical" name="LDOWNSAMPLE"> F  </i>
   <i type="logical" name="LCHARG"> T  </i>
   <i type="logical" name="LPARD"> F  </i>
   <i type="logical" name="LVTOT"> F  </i>
   <i type="logical" name="LVHAR"> F  </i>
   <i type="logical" name="LELF"> F  </i>
   <i type="logical" name="LOPTICS"> F  </i>
   <v name="STM">      0.00000000      0.00000000      0.00000000      0.00000000      0.00000000      0.00000000      0.00000000</v>
  </separator>
  <separator name="performance" >
   <i type="int" name="NPAR">     8</i>
   <i type="int" name="NSIM">     4</i>
   <i type="int" name="NBLK">    -1</i>
   <i type="logical" name="LPLANE"> T  </i>
   <i type="logical" name="LSCALAPACK"> T  </i>
   <i type="logical" name="LSCAAWARE"> F  </i>
   <i type="logical" name="LSCALU"> F  </i>
   <i type="logical" name="LASYNC"> F  </i>
   <i type="logical" name="LORBITALREAL"> F  </i>
  </separator>
  <separator name="miscellaneous" >
   <i type="int" name="IDIOT">     3</i>
   <i type="int" name="ISPECIAL">     0</i>
   <i type="logical" name="LMUSIC"> F  </i>
   <v name="POMASS">     92.91000000     95.94000000    180.94800000     47.88000000     50.94100000</v>
   <v name="DARWINR">      0.00000000      0.00000000      0.00000000      0.00000000      0.00000000</v>
   <v name="DARWINV">      1.00000000      1.00000000      1.00000000      1.00000000      1.00000000</v>
   <i type="logical" name="LCORR"> T  </i>
  </separator>
  <i type="logical" name="GGA_COMPAT"> T  </i>
  <i type="logical" name="LBERRY"> F  </i>
  <i type="int" name="ICORELEVEL">     0</i>
  <i type="logical" name="LDAU"> F  </i>
  <i type="int" name="I_CONSTRAINED_M">     0</i>
  <separator name="electronic exchange-correlation" >
   <i type="string" name="GGA">PS</i>
   <i type="int" name="VOSKOWN">     0</i>
   <i type="logical" name="LHFCALC"> F  </i>
   <i type="string" name="PRECFOCK"></i>
   <i type="logical" name="LSYMGRAD"> F  </i>
   <i type="logical" name="LHFONE"> F  </i>
   <i type="logical" name="LRHFCALC"> F  </i>
   <i type="logical" name="LTHOMAS"> F  </i>
   <i type="logical" name="LMODELHF"> F  </i>
   <i name="ENCUT4O">     -1.00000000</i>
   <i type="int" name="EXXOEP">     0</i>
   <i type="int" name="FOURORBIT">     0</i>
   <i name="AEXX">      0.00000000</i>
   <i name="HFALPHA">      0.00000000</i>
   <i name="MCALPHA">      0.00000000</i>
   <i name="ALDAX">      1.00000000</i>
   <i name="AGGAX">      1.00000000</i>
   <i name="ALDAC">      1.00000000</i>
   <i name="AGGAC">      1.00000000</i>
   <i type="int" name="NKREDX">     1</i>
   <i type="int" name="NKREDY">     1</i>
   <i type="int" name="NKREDZ">     1</i>
   <i type="logical" name="SHIFTRED"> F  </i>
   <i type="logical" name="ODDONLY"> F  </i>
   <i type="logical" name="EVENONLY"> F  </i>
   <i type="int" name="LMAXFOCK">     0</i>
   <i type="int" name="NMAXFOCKAE">     0</i>
   <i type="logical" name="LFOCKAEDFT"> F  </i>
   <i name="HFSCREEN">      0.00000000</i>
   <i name="HFSCREENC">      0.00000000</i>
   <i type="int" name="NBANDSGWLOW">     0</i>
  </separator>
  <separator name="vdW DFT" >
   <i type="logical" name="LUSE_VDW"> F  </i>
   <i name="Zab_VDW">     -0.84910000</i>
   <i name="PARAM1">      0.12340000</i>
   <i name="PARAM2">      1.00000000</i>
   <i name="PARAM3">      0.00000000</i>
  </separator>
  <separator name="model GW" >
   <i type="int" name="MODEL_GW">     0</i>
   <i name="MODEL_EPS0">      9.46634880</i>
   <i name="MODEL_ALPHA">      1.00000000</i>
  </separator>
  <separator name="linear response parameters" >
   <i type="logical" name="LEPSILON"> F  </i>
   <i type="logical" name="LRPA"> F  </i>
   <i type="logical" name="LNABLA"> F  </i>
   <i type="logical" name="LVEL"> F  </i>
   <i type="int" name="KINTER">     0</i>
   <i name="CSHIFT">      0.10000000</i>
   <i name="OMEGAMAX">     -1.00000000</i>
   <i name="DEG_THRESHOLD">      0.00200000</i>
   <i name="RTIME">     -0.10000000</i>
   <i name="WPLASMAI">      0.00000000</i>
   <v name="DFIELD">      0.00000000      0.00000000      0.00000000</v>
   <v name="WPLASMA">      0.00000000      0.00000000      0.00000000      0.00000000      0.00000000      0.00000000      0.00000000      0.00000000      0.00000000</v>
  </separator>
  <separator name="orbital magnetization" >
   <i type="logical" name="NUCIND"> F  </i>
   <v name="MAGPOS">      0.00000000      0.00000000      0.00000000</v>
   <i type="logical" name="LNICSALL"> T  </i>
   <i type="logical" name="ORBITALMAG"> F  </i>
   <i type="logical" name="LMAGBLOCH"> F  </i>
   <i type="logical" name="LCHIMAG"> F  </i>
   <i type="logical" name="LGAUGE"> T  </i>
   <i type="int" name="MAGATOM">     0</i>
   <v name="MAGDIPOL">      0.00000000      0.00000000      0.00000000</v>
   <v name="AVECCONST">      0.00000000      0.00000000      0.00000000</v>
  </separator>
  <separator name="response functions" >
   <i type="logical" name="LADDER"> F  </i>
   <i type="logical" name="LRPAFORCE"> F  </i>
   <i type="logical" name="LFXC"> F  </i>
   <i type="logical" name="LHARTREE"> T  </i>
   <i type="int" name="IBSE">     0</i>
   <v type="int" name="KPOINT">    -1     0     0     0</v>
   <i type="logical" name="LTCTE"> F  </i>
   <i type="logical" name="LTETE"> F  </i>
   <i type="logical" name="LTRIPLET"> F  </i>
   <i type="logical" name="LFXCEPS"> F  </i>
   <i type="logical" name="LFXHEG"> F  </i>
   <i type="int" name="NATURALO">     2</i>
   <i type="logical" name="L2ORDER"> F  </i>
   <i type="logical" name="LMP2LT"> F  </i>
   <i type="logical" name="LUSEW"> F  </i>
   <i name="ENCUTGW">     -2.00000000</i>
   <i name="ENCUTGWSOFT">     -2.00000000</i>
   <i name="ENCUTLF">     -1.00000000</i>
   <i type="int" name="LMAXMP2">    -1</i>
   <i name="SCISSOR">      0.00000000</i>
   <i type="int" name="NOMEGA">     0</i>
   <i type="int" name="NOMEGAR">     0</i>
   <i type="int" name="NBANDSGW">    -1</i>
   <i type="int" name="NBANDSO">    -1</i>
   <i type="int" name="NBANDSV">    -1</i>
   <i type="int" name="NELM">   100</i>
   <i type="int" name="NELMHF">     1</i>
   <i type="int" name="DIM">     3</i>
   <i type="int" name="ANTIRES">     0</i>
   <i name="OMEGAMAX">    -30.00000000</i>
   <i name="OMEGAMIN">    -30.00000000</i>
   <i name="OMEGATL">   -200.00000000</i>
   <i type="int" name="OMEGAGRID">   140</i>
   <i name="CSHIFT">     -0.10000000</i>
   <i type="logical" name="SELFENERGY"> F  </i>
   <i type="logical" name="LSPECTRAL"> F  </i>
   <i type="logical" name="LSPECTRALGW"> F  </i>
   <i type="logical" name="LSINGLES"> F  </i>
   <i type="logical" name="LFERMIGW"> F  </i>
   <i type="logical" name="ODDONLYGW"> F  </i>
   <i type="logical" name="EVENONLYGW"> F  </i>
   <i type="int" name="NKREDLFX">     1</i>
   <i type="int" name="NKREDLFY">     1</i>
   <i type="int" name="NKREDLFZ">     1</i>
   <i type="int" name="MAXMEM">  2800</i>
   <i type="int" name="TELESCOPE">     0</i>
   <i type="int" name="TAUPAR">     1</i>
   <i type="int" name="OMEGAPAR">    -1</i>
   <i name="LAMBDA">      1.00000000</i>
  </separator>
  <separator name="External order field" >
   <i name="OFIELD_KAPPA">      0.00000000</i>
   <v name="OFIELD_K">      0.00000000      0.00000000      0.00000000</v>
   <i name="OFIELD_Q6_NEAR">      0.00000000</i>
   <i name="OFIELD_Q6_FAR">      0.00000000</i>
   <i name="OFIELD_A">      0.00000000</i>
  </separator>
  <separator name="solvation model" >
   <i type="logical" name="LSOL"> F  </i>
  </separator>
 </parameters>
 <atominfo>
  <atoms>      30 </atoms>
  <types>       5 </types>
  <array name="atoms" >
   <dimension dim="1">ion</dimension>
   <field type="string">element</field>
   <field type="int">atomtype</field>
   <set>
    <rc><c>Nb</c><c>   1</c></rc>
    <rc><c>Nb</c><c>   1</c></rc>
    <rc><c>Nb</c><c>   1</c></rc>
    <rc><c>Nb</c><c>   1</c></rc>
    <rc><c>Nb</c><c>   1</c></rc>
    <rc><c>Nb</c><c>   1</c></rc>
    <rc><c>Mo</c><c>   2</c></rc>
    <rc><c>Mo</c><c>   2</c></rc>
    <rc><c>Mo</c><c>   2</c></rc>
    <rc><c>Mo</c><c>   2</c></rc>
    <rc><c>Mo</c><c>   2</c></rc>
    <rc><c>Mo</c><c>   2</c></rc>
    <rc><c>Ta</c><c>   3</c></rc>
    <rc><c>Ta</c><c>   3</c></rc>
    <rc><c>Ta</c><c>   3</c></rc>
    <rc><c>Ta</c><c>   3</c></rc>
    <rc><c>Ta</c><c>   3</c></rc>
    <rc><c>Ta</c><c>   3</c></rc>
    <rc><c>Ti</c><c>   4</c></rc>
    <rc><c>Ti</c><c>   4</c></rc>
    <rc><c>Ti</c><c>   4</c></rc>
    <rc><c>Ti</c><c>   4</c></rc>
    <rc><c>Ti</c><c>   4</c></rc>
    <rc><c>Ti</c><c>   4</c></rc>
    <rc><c>V </c><c>   5</c></rc>
    <rc><c>V </c><c>   5</c></rc>
    <rc><c>V </c><c>   5</c></rc>
    <rc><c>V </c><c>   5</c></rc>
    <rc><c>V </c><c>   5</c></rc>
    <rc><c>V </c><c>   5</c></rc>
   </set>
  </array>
  <array name="atomtypes" >
   <dimension dim="1">type</dimension>
   <field type="int">atomspertype</field>
   <field type="string">element</field>
   <field>mass</field>
   <field>valence</field>
   <field type="string">pseudopotential</field>
   <set>
    <rc><c>   6</c><c>Nb</c><c>     92.91000000</c><c>     13.00000000</c><c>  PAW_PBE Nb_sv 25May2007               </c></rc>
    <rc><c>   6</c><c>Mo</c><c>     95.94000000</c><c>      6.00000000</c><c>  PAW_PBE Mo 08Apr2002                  </c></rc>
    <rc><c>   6</c><c>Ta</c><c>    180.94800000</c><c>      5.00000000</c><c>  PAW_PBE Ta 17Jan2003                  </c></rc>
    <rc><c>   6</c><c>Ti</c><c>     47.88000000</c><c>      4.00000000</c><c>  PAW_PBE Ti 08Apr2002                  </c></rc>
    <rc><c>   6</c><c>V </c><c>     50.94100000</c><c>      5.00000000</c><c>  PAW_PBE V 08Apr2002                   </c></rc>
   </set>
  </array>
 </atominfo>
 <structure name="initialpos" >
  <crystal>
   <varray name="basis" >
    <v>      -3.16000000      -3.16000000      -3.16000000 </v>
    <v>       1.58000000       1.58000000      -7.90000000 </v>
    <v>       7.90000000      -7.90000000      -1.58000000 </v>
   </varray>
   <i name="volume">    473.31744000 </i>
   <varray name="rec_basis" >
    <v>      -0.13713080      -0.12658228      -0.05274262 </v>
    <v>       0.04219409       0.06329114      -0.10548523 </v>
    <v>       0.06329114      -0.06329114       0.00000000 </v>
   </varray>
  </crystal>
  <varray name="positions" >
   <v>       0.96666667       0.93333333       0.40000000 </v>
   <v>       0.63333333       0.26666667       0.40000000 </v>
   <v>       0.50000000       0.00000000       0.00000000 </v>
   <v>       0.00000000       0.00000000       0.00000000 </v>
   <v>       0.10000000       0.20000000       0.80000000 </v>
   <v>       0.03333333       0.06666667       0.60000000 </v>
   <v>       0.90000000       0.80000000       0.20000000 </v>
   <v>       0.80000000       0.60000000       0.40000000 </v>
   <v>       0.73333333       0.46666667       0.20000000 </v>
   <v>       0.66666667       0.33333333       0.00000000 </v>
   <v>       0.36666667       0.73333333       0.60000000 </v>
   <v>       0.13333333       0.26666667       0.40000000 </v>
   <v>       0.83333333       0.66666667       0.00000000 </v>
   <v>       0.93333333       0.86666667       0.80000000 </v>
   <v>       0.56666667       0.13333333       0.20000000 </v>
   <v>       0.40000000       0.80000000       0.20000000 </v>
   <v>       0.43333333       0.86666667       0.80000000 </v>
   <v>       0.30000000       0.60000000       0.40000000 </v>
   <v>       0.86666667       0.73333333       0.60000000 </v>
   <v>       0.46666667       0.93333333       0.40000000 </v>
   <v>       0.16666667       0.33333333       0.00000000 </v>
   <v>       0.26666667       0.53333333       0.80000000 </v>
   <v>       0.20000000       0.40000000       0.60000000 </v>
   <v>       0.06666667       0.13333333       0.20000000 </v>
   <v>       0.76666667       0.53333333       0.80000000 </v>
   <v>       0.70000000       0.40000000       0.60000000 </v>
   <v>       0.60000000       0.20000000       0.80000000 </v>
   <v>       0.53333333       0.06666667       0.60000000 </v>
   <v>       0.33333333       0.66666667       0.00000000 </v>
   <v>       0.23333333       0.46666667       0.20000000 </v>
  </varray>
 </structure>
 <calculation>
  <scstep>
   <time name="dav">   30.65   30.72</time>
   <time name="total">   31.28   31.37</time>
   <energy>
    <i name="alphaZ">   1230.05567093 </i>
    <i name="ewald"> -11534.45390572 </i>
    <i name="hartreedc">  -2951.91024796 </i>
    <i name="XCdc">   -886.40918750 </i>
    <i name="pawpsdc">  19440.78107374 </i>
    <i name="pawaedc"> -17929.87351495 </i>
    <i name="eentropy">     -0.02096414 </i>
    <i name="bandstr">   -703.56452456 </i>
    <i name="atom">  13005.90793652 </i>
    <i name="e_fr_energy">   -329.48766364 </i>
    <i name="e_wo_entrp">   -329.46669950 </i>
    <i name="e_0_energy">   -329.48067560 </i>
   </energy>
  </scstep>
  <scstep>
   <time name="dav">   24.79   24.82</time>
   <time name="total">   25.42   25.45</time>
   <energy>
    <i name="e_fr_energy">   -379.83321348 </i>
    <i name="e_wo_entrp">   -379.82563378 </i>
    <i name="e_0_energy">   -379.83068692 </i>
   </energy>
  </scstep>
  <scstep>
   <time name="dav">   27.54   27.57</time>
   <time name="total">   28.17   28.20</time>
   <energy>
    <i name="e_fr_energy">   -348.88892191 </i>
    <i name="e_wo_entrp">   -348.88324299 </i>
    <i name="e_0_energy">   -348.88702894 </i>
   </energy>
  </scstep>
  <scstep>
   <time name="dav">   29.50   29.53</time>
   <time name="total">   30.12   30.16</time>
   <energy>
    <i name="e_fr_energy">   -331.02864003 </i>
    <i name="e_wo_entrp">   -331.02250993 </i>
    <i name="e_0_energy">   -331.02659666 </i>
   </energy>
  </scstep>
  <scstep>
   <time name="dav">   29.99   30.03</time>
   <time name="total">   30.62   30.66</time>
   <energy>
    <i name="e_fr_energy">   -325.60262495 </i>
    <i name="e_wo_entrp">   -325.58805935 </i>
    <i name="e_0_energy">   -325.59776975 </i>
   </energy>
  </scstep>
  <scstep>
   <time name="dav">   27.64   27.67</time>
   <time name="total">   28.26   28.30</time>
   <energy>
    <i name="e_fr_energy">   -320.94952936 </i>
    <i name="e_wo_entrp">   -320.94185178 </i>
    <i name="e_0_energy">   -320.94697017 </i>
   </energy>
  </scstep>
  <scstep>
   <time name="dav">   29.01   29.04</time>
   <time name="total">   29.63   29.67</time>
   <energy>
    <i name="e_fr_energy">   -319.08118384 </i>
    <i name="e_wo_entrp">   -319.06819683 </i>
    <i name="e_0_energy">   -319.07685483 </i>
   </energy>
  </scstep>
  <scstep>
   <time name="dav">   28.53   28.56</time>
   <time name="total">   29.16   29.19</time>
   <energy>
    <i name="e_fr_energy">   -319.07287377 </i>
    <i name="e_wo_entrp">   -319.06567060 </i>
    <i name="e_0_energy">   -319.07047271 </i>
   </energy>
  </scstep>
  <scstep>
   <time name="dav">   28.92   28.95</time>
   <time name="total">   29.55   29.58</time>
   <energy>
    <i name="e_fr_energy">   -319.05888423 </i>
    <i name="e_wo_entrp">   -319.04465910 </i>
    <i name="e_0_energy">   -319.05414252 </i>
   </energy>
  </scstep>
  <scstep>
   <time name="dav">   27.08   27.11</time>
   <time name="total">   27.71   27.74</time>
   <energy>
    <i name="e_fr_energy">   -318.96734468 </i>
    <i name="e_wo_entrp">   -318.95704273 </i>
    <i name="e_0_energy">   -318.96391069 </i>
   </energy>
  </scstep>
  <scstep>
   <time name="dav">   27.11   27.14</time>
   <time name="total">   27.74   27.77</time>
   <energy>
    <i name="e_fr_energy">   -319.04246966 </i>
    <i name="e_wo_entrp">   -319.03124365 </i>
    <i name="e_0_energy">   -319.03872766 </i>
   </energy>
  </scstep>
  <scstep>
   <time name="dav">   28.12   28.15</time>
   <time name="total">   28.75   28.78</time>
   <energy>
    <i name="e_fr_energy">   -318.92770519 </i>
    <i name="e_wo_entrp">   -318.91264800 </i>
    <i name="e_0_energy">   -318.92268613 </i>
   </energy>
  </scstep>
  <scstep>
   <time name="dav">   27.85   27.87</time>
   <time name="total">   28.47   28.50</time>
   <energy>
    <i name="e_fr_energy">   -318.84387801 </i>
    <i name="e_wo_entrp">   -318.83218308 </i>
    <i name="e_0_energy">   -318.83997970 </i>
   </energy>
  </scstep>
  <scstep>
   <time name="dav">   27.85   27.88</time>
   <time name="total">   28.47   28.50</time>
   <energy>
    <i name="e_fr_energy">   -318.82034783 </i>
    <i name="e_wo_entrp">   -318.80851088 </i>
    <i name="e_0_energy">   -318.81640218 </i>
   </energy>
  </scstep>
  <scstep>
   <time name="dav">   27.77   27.80</time>
   <time name="total">   28.41   28.43</time>
   <energy>
    <i name="e_fr_energy">   -318.81795607 </i>
    <i name="e_wo_entrp">   -318.80471677 </i>
    <i name="e_0_energy">   -318.81354297 </i>
   </energy>
  </scstep>
  <scstep>
   <time name="dav">   26.08   26.10</time>
   <time name="total">   26.70   26.73</time>
   <energy>
    <i name="e_fr_energy">   -318.81710783 </i>
    <i name="e_wo_entrp">   -318.80492003 </i>
    <i name="e_0_energy">   -318.81304523 </i>
   </energy>
  </scstep>
  <scstep>
   <time name="dav">   24.97   25.00</time>
   <time name="total">   25.60   25.63</time>
   <energy>
    <i name="e_fr_energy">   -318.81103694 </i>
    <i name="e_wo_entrp">   -318.79855928 </i>
    <i name="e_0_energy">   -318.80687772 </i>
   </energy>
  </scstep>
  <scstep>
   <time name="dav">   26.21   26.24</time>
   <time name="total">   26.84   26.87</time>
   <energy>
    <i name="e_fr_energy">   -318.80999324 </i>
    <i name="e_wo_entrp">   -318.79736776 </i>
    <i name="e_0_energy">   -318.80578475 </i>
   </energy>
  </scstep>
  <scstep>
   <time name="dav">   25.10   25.12</time>
   <time name="total">   25.72   25.75</time>
   <energy>
    <i name="e_fr_energy">   -318.80980059 </i>
    <i name="e_wo_entrp">   -318.79735016 </i>
    <i name="e_0_energy">   -318.80565045 </i>
   </energy>
  </scstep>
  <scstep>
   <time name="dav">   22.22   22.24</time>
   <time name="total">   22.26   22.29</time>
   <energy>
    <i name="alphaZ">   1230.05567093 </i>
    <i name="ewald"> -11534.45390572 </i>
    <i name="hartreedc">  -2955.92053799 </i>
    <i name="XCdc">   -886.58800985 </i>
    <i name="pawpsdc">  19385.11008860 </i>
    <i name="pawaedc"> -17875.70053521 </i>
    <i name="eentropy">     -0.01250221 </i>
    <i name="bandstr">   -687.20798748 </i>
    <i name="atom">  13005.90793652 </i>
    <i name="e_fr_energy">   -318.80978241 </i>
    <i name="e_wo_entrp">   -318.79728020 </i>
    <i name="e_0_energy">   -318.80561500 </i>
   </energy>
  </scstep>
  <structure>
   <crystal>
    <varray name="basis" >
     <v>      -3.16000000      -3.16000000      -3.16000000 </v>
     <v>       1.58000000       1.58000000      -7.90000000 </v>
     <v>       7.90000000      -7.90000000      -1.58000000 </v>
    </varray>
    <i name="volume">    473.31744000 </i>
    <varray name="rec_basis" >
     <v>      -0.13713080      -0.12658228      -0.05274262 </v>
     <v>       0.04219409       0.06329114      -0.10548523 </v>
     <v>       0.06329114      -0.06329114       0.00000000 </v>
    </varray>
   </crystal>
   <varray name="positions" >
    <v>       0.96666667       0.93333333       0.40000000 </v>
    <v>       0.63333333       0.26666667       0.40000000 </v>
    <v>       0.50000000       0.00000000       0.00000000 </v>
    <v>       0.00000000       0.00000000       0.00000000 </v>
    <v>       0.10000000       0.20000000       0.80000000 </v>
    <v>       0.03333333       0.06666667       0.60000000 </v>
    <v>       0.90000000       0.80000000       0.20000000 </v>
    <v>       0.80000000       0.60000000       0.40000000 </v>
    <v>       0.73333333       0.46666667       0.20000000 </v>
    <v>       0.66666667       0.33333333       0.00000000 </v>
    <v>       0.36666667       0.73333333       0.60000000 </v>
    <v>       0.13333333       0.26666667       0.40000000 </v>
    <v>       0.83333333       0.66666667       0.00000000 </v>
    <v>       0.93333333       0.86666667       0.80000000 </v>
    <v>       0.56666667       0.13333333       0.20000000 </v>
    <v>       0.40000000       0.80000000       0.20000000 </v>
    <v>       0.43333333       0.86666667       0.80000000 </v>
    <v>       0.30000000       0.60000000       0.40000000 </v>
    <v>       0.86666667       0.73333333       0.60000000 </v>
    <v>       0.46666667       0.93333333       0.40000000 </v>
    <v>       0.16666667       0.33333333       0.00000000 </v>
    <v>       0.26666667       0.53333333       0.80000000 </v>
    <v>       0.20000000       0.40000000       0.60000000 </v>
    <v>       0.06666667       0.13333333       0.20000000 </v>
    <v>       0.76666667       0.53333333       0.80000000 </v>
    <v>       0.70000000       0.40000000       0.60000000 </v>
    <v>       0.60000000       0.20000000       0.80000000 </v>
    <v>       0.53333333       0.06666667       0.60000000 </v>
    <v>       0.33333333       0.66666667       0.00000000 </v>
    <v>       0.23333333       0.46666667       0.20000000 </v>
   </varray>
  </structure>
  <varray name="forces" >
   <v>       0.09048731       0.44670881       0.22707030 </v>
   <v>       0.34928026      -0.16494809       0.01798234 </v>
   <v>      -0.11060656       0.39813225      -0.25007078 </v>
   <v>       0.25474953      -0.03133886      -0.05039636 </v>
   <v>      -0.02893561       0.74501954      -0.60485827 </v>
   <v>      -0.20691012       0.28591136      -0.35844472 </v>
   <v>      -0.02954684      -0.57737256       0.19749437 </v>
   <v>      -0.52230030      -0.32295000       0.58223110 </v>
   <v>      -0.19089070       0.27856547       0.05660286 </v>
   <v>       0.17091553       0.57355242      -0.60260911 </v>
   <v>      -0.16737971      -0.42297780       0.26738215 </v>
   <v>       0.12738648       0.17521886      -0.62749859 </v>
   <v>       0.04572984      -0.50230860       0.49805102 </v>
   <v>       0.19803394       0.38065575      -0.05077518 </v>
   <v>      -0.20743637       0.50528313      -0.12749100 </v>
   <v>      -0.70238484      -0.10635922       0.79012130 </v>
   <v>      -0.89598115      -0.14281551       0.63920113 </v>
   <v>       0.34753373      -0.32958210      -0.17467969 </v>
   <v>       0.08858573       0.20553007       0.53112603 </v>
   <v>       0.56301899      -0.56139385       0.11529898 </v>
   <v>      -0.03572681      -0.17176124      -0.42615728 </v>
   <v>      -0.38624422      -0.04320187      -0.24313429 </v>
   <v>      -0.19791565      -0.10215611       0.49879336 </v>
   <v>       0.63112513      -0.12037723      -0.86336967 </v>
   <v>       0.04716062      -0.34378002       0.60747407 </v>
   <v>       0.58881172       0.09748693      -0.39792832 </v>
   <v>       0.00906787       0.29731633      -0.22965172 </v>
   <v>       0.19509153      -0.44487131      -0.48183310 </v>
   <v>      -0.25095084      -0.26490166       0.62398346 </v>
   <v>       0.22623150       0.26371510      -0.16391437 </v>
  </varray>
  <varray name="stress" >
   <v>       5.49059012      -3.88265904       1.21264529 </v>
   <v>      -3.88265906       2.41051134      -0.53213476 </v>
   <v>       1.21264534      -0.53213481       3.86062129 </v>
  </varray>
  <energy>
   <i name="e_fr_energy">   -318.80978241 </i>
   <i name="e_wo_entrp">   -318.80561500 </i>
   <i name="e_0_energy">     -0.01250221 </i>
  </energy>
  <time name="totalsc">  583.32  588.70</time>
  <eigenvalues>
   <array>
    <dimension dim="1">band</dimension>
    <dimension dim="2">kpoint</dimension>
    <dimension dim="3">spin</dimension>
    <field>eigene</field>
    <field>occ</field>
    <set>
     <set comment="spin 1">
      <set comment="kpoint 1">
       <r>  -47.2275    1.0000 </r>
       <r>  -47.2054    1.0000 </r>
       <r>  -47.1598    1.0000 </r>
       <r>  -47.1042    1.0000 </r>
       <r>  -47.0700    1.0000 </r>
       <r>  -46.9751    1.0000 </r>
       <r>  -24.0037    1.0000 </r>
       <r>  -23.8392    1.0000 </r>
       <r>  -23.6776    1.0000 </r>
       <r>  -23.6318    1.0000 </r>
       <r>  -23.3999    1.0000 </r>
       <r>  -23.3924    1.0000 </r>
       <r>  -23.3864    1.0000 </r>
       <r>  -23.3359    1.0000 </r>
       <r>  -23.3184    1.0000 </r>
       <r>  -23.2991    1.0000 </r>
       <r>  -23.2677    1.0000 </r>
       <r>  -23.2249    1.0000 </r>
       <r>  -23.1884    1.0000 </r>
       <r>  -23.1652    1.0000 </r>
       <r>  -23.0179    1.0000 </r>
       <r>  -22.9983    1.0000 </r>
       <r>  -22.8427    1.0000 </r>
       <r>  -22.6105    1.0000 </r>
       <r>   -0.0884    1.0000 </r>
       <r>    1.2271    1.0000 </r>
       <r>    1.5870    1.0000 </r>
       <r>    2.3705    1.0000 </r>
       <r>    2.4861    1.0000 </r>
       <r>    2.5720    1.0000 </r>
       <r>    2.6717    1.0000 </r>
       <r>    2.7950    1.0000 </r>
       <r>    2.8506    1.0000 </r>
       <r>    2.9211    1.0000 </r>
       <r>    2.9967    1.0000 </r>
       <r>    3.0352    1.0000 </r>
       <r>    3.0979    1.0000 </r>
       <r>    3.1605    1.0000 </r>
       <r>    3.2564    1.0000 </r>
       <r>    3.3030    1.0000 </r>
       <r>    3.3903    1.0000 </r>
       <r>    3.4740    1.0000 </r>
       <r>    3.5811    1.0000 </r>
       <r>    3.6364    1.0000 </r>
       <r>    3.7241    1.0000 </r>
       <r>    3.7642    1.0000 </r>
       <r>    3.8090    1.0000 </r>
       <r>    3.8285    1.0000 </r>
       <r>    4.0133    1.0000 </r>
       <r>    4.0365    1.0000 </r>
       <r>    4.1370    1.0000 </r>
       <r>    4.1773    1.0000 </r>
       <r>    4.2690    1.0000 </r>
       <r>    4.3113    1.0000 </r>
       <r>    4.4409    1.0000 </r>
       <r>    4.5197    1.0000 </r>
       <r>    4.6065    1.0000 </r>
       <r>    4.6583    1.0000 </r>
       <r>    4.7780    1.0000 </r>
       <r>    4.8147    1.0000 </r>
       <r>    4.9002    1.0000 </r>
       <r>    4.9458    1.0000 </r>
       <r>    4.9530    1.0000 </r>
       <r>    5.0520    1.0000 </r>
       <r>    5.0570    1.0000 </r>
       <r>    5.1520    1.0000 </r>
       <r>    5.1653    1.0000 </r>
       <r>    5.2540    1.0000 </r>
       <r>    5.2672    1.0000 </r>
       <r>    5.3244    1.0000 </r>
       <r>    5.3850    1.0000 </r>
       <r>    5.4143    1.0000 </r>
       <r>    5.4734    1.0000 </r>
       <r>    5.5182    1.0000 </r>
       <r>    5.5308    1.0000 </r>
       <r>    5.5507    1.0000 </r>
       <r>    5.5667    1.0000 </r>
       <r>    5.6929    1.0000 </r>
       <r>    5.7584    1.0000 </r>
       <r>    5.8487    1.0000 </r>
       <r>    6.0343    1.0000 </r>
       <r>    6.0877    1.0000 </r>
       <r>    6.1258    1.0001 </r>
       <r>    6.1651    1.0002 </r>
       <r>    6.2254    1.0010 </r>
       <r>    6.2895    1.0037 </r>
       <r>    6.3369    1.0085 </r>
       <r>    6.3789    1.0156 </r>
       <r>    6.3831    1.0165 </r>
       <r>    6.4199    1.0247 </r>
       <r>    6.4470    1.0307 </r>
       <r>    6.4674    1.0341 </r>
       <r>    6.4973    1.0351 </r>
       <r>    6.5698    0.9939 </r>
       <r>    6.7247    0.5343 </r>
       <r>    6.7589    0.3907 </r>
       <r>    6.8373    0.1179 </r>
       <r>    6.8787    0.0304 </r>
       <r>    6.9236   -0.0196 </r>
       <r>    7.0153   -0.0313 </r>
       <r>    7.0836   -0.0163 </r>
       <r>    7.1160   -0.0104 </r>
       <r>    7.1596   -0.0051 </r>
       <r>    7.1749   -0.0038 </r>
       <r>    7.2079   -0.0020 </r>
       <r>    7.3447   -0.0001 </r>
       <r>    7.5893   -0.0000 </r>
       <r>    7.7429   -0.0000 </r>
       <r>    7.7863   -0.0000 </r>
       <r>    7.8727   -0.0000 </r>
       <r>    8.2136   -0.0000 </r>
       <r>    8.3777   -0.0000 </r>
       <r>    8.5269   -0.0000 </r>
       <r>    8.6227   -0.0000 </r>
       <r>    8.6843   -0.0000 </r>
       <r>    8.6906   -0.0000 </r>
       <r>    8.7232   -0.0000 </r>
       <r>    8.7407   -0.0000 </r>
       <r>    8.8246   -0.0000 </r>
       <r>    8.8521   -0.0000 </r>
      </set>
      <set comment="kpoint 2">
       <r>  -47.2242    1.0000 </r>
       <r>  -47.1993    1.0000 </r>
       <r>  -47.1571    1.0000 </r>
       <r>  -47.1030    1.0000 </r>
       <r>  -47.0694    1.0000 </r>
       <r>  -46.9882    1.0000 </r>
       <r>  -23.9032    1.0000 </r>
       <r>  -23.8269    1.0000 </r>
       <r>  -23.6701    1.0000 </r>
       <r>  -23.6254    1.0000 </r>
       <r>  -23.3975    1.0000 </r>
       <r>  -23.3945    1.0000 </r>
       <r>  -23.3851    1.0000 </r>
       <r>  -23.3384    1.0000 </r>
       <r>  -23.3174    1.0000 </r>
       <r>  -23.3042    1.0000 </r>
       <r>  -23.2701    1.0000 </r>
       <r>  -23.2288    1.0000 </r>
       <r>  -23.1989    1.0000 </r>
       <r>  -23.1681    1.0000 </r>
       <r>  -23.0240    1.0000 </r>
       <r>  -23.0046    1.0000 </r>
       <r>  -22.8451    1.0000 </r>
       <r>  -22.7433    1.0000 </r>
       <r>    0.2301    1.0000 </r>
       <r>    1.5082    1.0000 </r>
       <r>    1.8555    1.0000 </r>
       <r>    2.4301    1.0000 </r>
       <r>    2.7066    1.0000 </r>
       <r>    2.8140    1.0000 </r>
       <r>    2.8546    1.0000 </r>
       <r>    2.9680    1.0000 </r>
       <r>    2.9980    1.0000 </r>
       <r>    3.0471    1.0000 </r>
       <r>    3.1831    1.0000 </r>
       <r>    3.2416    1.0000 </r>
       <r>    3.2926    1.0000 </r>
       <r>    3.3890    1.0000 </r>
       <r>    3.4103    1.0000 </r>
       <r>    3.4765    1.0000 </r>
       <r>    3.5283    1.0000 </r>
       <r>    3.6074    1.0000 </r>
       <r>    3.6522    1.0000 </r>
       <r>    3.6920    1.0000 </r>
       <r>    3.8060    1.0000 </r>
       <r>    3.8570    1.0000 </r>
       <r>    3.9231    1.0000 </r>
       <r>    4.0124    1.0000 </r>
       <r>    4.0762    1.0000 </r>
       <r>    4.1064    1.0000 </r>
       <r>    4.2205    1.0000 </r>
       <r>    4.2965    1.0000 </r>
       <r>    4.3200    1.0000 </r>
       <r>    4.4149    1.0000 </r>
       <r>    4.4700    1.0000 </r>
       <r>    4.5435    1.0000 </r>
       <r>    4.6238    1.0000 </r>
       <r>    4.7036    1.0000 </r>
       <r>    4.8202    1.0000 </r>
       <r>    4.8783    1.0000 </r>
       <r>    4.9400    1.0000 </r>
       <r>    5.0705    1.0000 </r>
       <r>    5.0978    1.0000 </r>
       <r>    5.1635    1.0000 </r>
       <r>    5.1938    1.0000 </r>
       <r>    5.2339    1.0000 </r>
       <r>    5.2868    1.0000 </r>
       <r>    5.3439    1.0000 </r>
       <r>    5.3653    1.0000 </r>
       <r>    5.3801    1.0000 </r>
       <r>    5.4470    1.0000 </r>
       <r>    5.4779    1.0000 </r>
       <r>    5.5444    1.0000 </r>
       <r>    5.5666    1.0000 </r>
       <r>    5.6445    1.0000 </r>
       <r>    5.6789    1.0000 </r>
       <r>    5.7012    1.0000 </r>
       <r>    5.7386    1.0000 </r>
       <r>    5.7856    1.0000 </r>
       <r>    5.8217    1.0000 </r>
       <r>    5.8439    1.0000 </r>
       <r>    5.9392    1.0000 </r>
       <r>    5.9955    1.0000 </r>
       <r>    6.0570    1.0000 </r>
       <r>    6.1325    1.0001 </r>
       <r>    6.1832    1.0004 </r>
       <r>    6.2119    1.0007 </r>
       <r>    6.3005    1.0046 </r>
       <r>    6.3927    1.0185 </r>
       <r>    6.4047    1.0212 </r>
       <r>    6.4471    1.0307 </r>
       <r>    6.4687    1.0342 </r>
       <r>    6.5155    1.0319 </r>
       <r>    6.5491    1.0145 </r>
       <r>    6.6305    0.8765 </r>
       <r>    6.6480    0.8258 </r>
       <r>    6.7149    0.5759 </r>
       <r>    6.7504    0.4262 </r>
       <r>    6.8134    0.1881 </r>
       <r>    6.8665    0.0518 </r>
       <r>    6.8913    0.0120 </r>
       <r>    6.9385   -0.0278 </r>
       <r>    7.0341   -0.0274 </r>
       <r>    7.0603   -0.0214 </r>
       <r>    7.1086   -0.0116 </r>
       <r>    7.1290   -0.0085 </r>
       <r>    7.1776   -0.0036 </r>
       <r>    7.3673   -0.0000 </r>
       <r>    7.5092   -0.0000 </r>
       <r>    7.6095   -0.0000 </r>
       <r>    7.9022   -0.0000 </r>
       <r>    7.9339   -0.0000 </r>
       <r>    7.9850   -0.0000 </r>
       <r>    8.0164   -0.0000 </r>
       <r>    8.1167   -0.0000 </r>
       <r>    8.2802   -0.0000 </r>
       <r>    8.3320   -0.0000 </r>
       <r>    8.3907   -0.0000 </r>
       <r>    8.4120   -0.0000 </r>
       <r>    8.4462   -0.0000 </r>
      </set>
      <set comment="kpoint 3">
       <r>  -47.2207    1.0000 </r>
       <r>  -47.1884    1.0000 </r>
       <r>  -47.1496    1.0000 </r>
       <r>  -47.0992    1.0000 </r>
       <r>  -47.0674    1.0000 </r>
       <r>  -47.0148    1.0000 </r>
       <r>  -23.8507    1.0000 </r>
       <r>  -23.6941    1.0000 </r>
       <r>  -23.6415    1.0000 </r>
       <r>  -23.5156    1.0000 </r>
       <r>  -23.4053    1.0000 </r>
       <r>  -23.3983    1.0000 </r>
       <r>  -23.3708    1.0000 </r>
       <r>  -23.3406    1.0000 </r>
       <r>  -23.3168    1.0000 </r>
       <r>  -23.3051    1.0000 </r>
       <r>  -23.2747    1.0000 </r>
       <r>  -23.2376    1.0000 </r>
       <r>  -23.2216    1.0000 </r>
       <r>  -23.1740    1.0000 </r>
       <r>  -23.1085    1.0000 </r>
       <r>  -23.0294    1.0000 </r>
       <r>  -22.9951    1.0000 </r>
       <r>  -22.8393    1.0000 </r>
       <r>    1.0811    1.0000 </r>
       <r>    2.0354    1.0000 </r>
       <r>    2.3701    1.0000 </r>
       <r>    2.5856    1.0000 </r>
       <r>    2.6641    1.0000 </r>
       <r>    3.0178    1.0000 </r>
       <r>    3.0757    1.0000 </r>
       <r>    3.2539    1.0000 </r>
       <r>    3.3526    1.0000 </r>
       <r>    3.4096    1.0000 </r>
       <r>    3.4561    1.0000 </r>
       <r>    3.4955    1.0000 </r>
       <r>    3.5503    1.0000 </r>
       <r>    3.5895    1.0000 </r>
       <r>    3.6812    1.0000 </r>
       <r>    3.7409    1.0000 </r>
       <r>    3.8173    1.0000 </r>
       <r>    3.8510    1.0000 </r>
       <r>    3.8785    1.0000 </r>
       <r>    3.9569    1.0000 </r>
       <r>    4.0589    1.0000 </r>
       <r>    4.0654    1.0000 </r>
       <r>    4.1456    1.0000 </r>
       <r>    4.1827    1.0000 </r>
       <r>    4.2786    1.0000 </r>
       <r>    4.3000    1.0000 </r>
       <r>    4.4370    1.0000 </r>
       <r>    4.4917    1.0000 </r>
       <r>    4.5512    1.0000 </r>
       <r>    4.6331    1.0000 </r>
       <r>    4.6881    1.0000 </r>
       <r>    4.7625    1.0000 </r>
       <r>    4.8357    1.0000 </r>
       <r>    4.8865    1.0000 </r>
       <r>    4.9174    1.0000 </r>
       <r>    4.9809    1.0000 </r>
       <r>    5.0098    1.0000 </r>
       <r>    5.0575    1.0000 </r>
       <r>    5.1181    1.0000 </r>
       <r>    5.1498    1.0000 </r>
       <r>    5.1861    1.0000 </r>
       <r>    5.2665    1.0000 </r>
       <r>    5.2932    1.0000 </r>
       <r>    5.3235    1.0000 </r>
       <r>    5.3624    1.0000 </r>
       <r>    5.4302    1.0000 </r>
       <r>    5.4763    1.0000 </r>
       <r>    5.5361    1.0000 </r>
       <r>    5.5746    1.0000 </r>
       <r>    5.6205    1.0000 </r>
       <r>    5.6565    1.0000 </r>
       <r>    5.7219    1.0000 </r>
       <r>    5.7746    1.0000 </r>
       <r>    5.7999    1.0000 </r>
       <r>    5.8105    1.0000 </r>
       <r>    5.8633    1.0000 </r>
       <r>    5.9582    1.0000 </r>
       <r>    6.0000    1.0000 </r>
       <r>    6.0353    1.0000 </r>
       <r>    6.0800    1.0000 </r>
       <r>    6.1378    1.0001 </r>
       <r>    6.1803    1.0003 </r>
       <r>    6.2503    1.0017 </r>
       <r>    6.2852    1.0034 </r>
       <r>    6.3203    1.0065 </r>
       <r>    6.3499    1.0104 </r>
       <r>    6.3844    1.0167 </r>
       <r>    6.4242    1.0257 </r>
       <r>    6.4500    1.0312 </r>
       <r>    6.4903    1.0354 </r>
       <r>    6.4945    1.0353 </r>
       <r>    6.5742    0.9883 </r>
       <r>    6.6213    0.9001 </r>
       <r>    6.6593    0.7891 </r>
       <r>    6.6933    0.6638 </r>
       <r>    6.7060    0.6125 </r>
       <r>    6.7467    0.4418 </r>
       <r>    6.7976    0.2413 </r>
       <r>    6.8033    0.2214 </r>
       <r>    6.8842    0.0219 </r>
       <r>    6.8938    0.0087 </r>
       <r>    6.9689   -0.0351 </r>
       <r>    7.0205   -0.0303 </r>
       <r>    7.0505   -0.0236 </r>
       <r>    7.0744   -0.0182 </r>
       <r>    7.1460   -0.0064 </r>
       <r>    7.1861   -0.0031 </r>
       <r>    7.2326   -0.0012 </r>
       <r>    7.5201   -0.0000 </r>
       <r>    7.6427   -0.0000 </r>
       <r>    7.6654   -0.0000 </r>
       <r>    7.8040   -0.0000 </r>
       <r>    7.8896   -0.0000 </r>
       <r>    7.9090   -0.0000 </r>
       <r>    8.0315   -0.0000 </r>
       <r>    8.1491   -0.0000 </r>
      </set>
      <set comment="kpoint 4">
       <r>  -47.2273    1.0000 </r>
       <r>  -47.2052    1.0000 </r>
       <r>  -47.1598    1.0000 </r>
       <r>  -47.1045    1.0000 </r>
       <r>  -47.0701    1.0000 </r>
       <r>  -46.9751    1.0000 </r>
       <r>  -24.0037    1.0000 </r>
       <r>  -23.8380    1.0000 </r>
       <r>  -23.6736    1.0000 </r>
       <r>  -23.6307    1.0000 </r>
       <r>  -23.4000    1.0000 </r>
       <r>  -23.3925    1.0000 </r>
       <r>  -23.3866    1.0000 </r>
       <r>  -23.3360    1.0000 </r>
       <r>  -23.3184    1.0000 </r>
       <r>  -23.2990    1.0000 </r>
       <r>  -23.2676    1.0000 </r>
       <r>  -23.2248    1.0000 </r>
       <r>  -23.1884    1.0000 </r>
       <r>  -23.1653    1.0000 </r>
       <r>  -23.0204    1.0000 </r>
       <r>  -23.0028    1.0000 </r>
       <r>  -22.8431    1.0000 </r>
       <r>  -22.6105    1.0000 </r>
       <r>    0.0457    1.0000 </r>
       <r>    1.2931    1.0000 </r>
       <r>    1.7096    1.0000 </r>
       <r>    1.9289    1.0000 </r>
       <r>    2.4788    1.0000 </r>
       <r>    2.6210    1.0000 </r>
       <r>    2.6947    1.0000 </r>
       <r>    2.7956    1.0000 </r>
       <r>    2.8225    1.0000 </r>
       <r>    2.9079    1.0000 </r>
       <r>    3.0089    1.0000 </r>
       <r>    3.0626    1.0000 </r>
       <r>    3.1024    1.0000 </r>
       <r>    3.1430    1.0000 </r>
       <r>    3.1995    1.0000 </r>
       <r>    3.2451    1.0000 </r>
       <r>    3.4169    1.0000 </r>
       <r>    3.4717    1.0000 </r>
       <r>    3.5623    1.0000 </r>
       <r>    3.6305    1.0000 </r>
       <r>    3.7284    1.0000 </r>
       <r>    3.8186    1.0000 </r>
       <r>    3.8469    1.0000 </r>
       <r>    3.9442    1.0000 </r>
       <r>    3.9874    1.0000 </r>
       <r>    4.0793    1.0000 </r>
       <r>    4.1513    1.0000 </r>
       <r>    4.2176    1.0000 </r>
       <r>    4.2451    1.0000 </r>
       <r>    4.3077    1.0000 </r>
       <r>    4.3818    1.0000 </r>
       <r>    4.4632    1.0000 </r>
       <r>    4.5573    1.0000 </r>
       <r>    4.7210    1.0000 </r>
       <r>    4.8010    1.0000 </r>
       <r>    4.8669    1.0000 </r>
       <r>    4.9067    1.0000 </r>
       <r>    5.0202    1.0000 </r>
       <r>    5.0554    1.0000 </r>
       <r>    5.1044    1.0000 </r>
       <r>    5.1539    1.0000 </r>
       <r>    5.1873    1.0000 </r>
       <r>    5.2483    1.0000 </r>
       <r>    5.2983    1.0000 </r>
       <r>    5.3251    1.0000 </r>
       <r>    5.3542    1.0000 </r>
       <r>    5.4099    1.0000 </r>
       <r>    5.4384    1.0000 </r>
       <r>    5.4785    1.0000 </r>
       <r>    5.5415    1.0000 </r>
       <r>    5.5813    1.0000 </r>
       <r>    5.6149    1.0000 </r>
       <r>    5.6623    1.0000 </r>
       <r>    5.6889    1.0000 </r>
       <r>    5.7993    1.0000 </r>
       <r>    5.8372    1.0000 </r>
       <r>    6.0487    1.0000 </r>
       <r>    6.0718    1.0000 </r>
       <r>    6.1509    1.0002 </r>
       <r>    6.1789    1.0003 </r>
       <r>    6.2199    1.0009 </r>
       <r>    6.2298    1.0011 </r>
       <r>    6.2630    1.0022 </r>
       <r>    6.3127    1.0057 </r>
       <r>    6.3567    1.0115 </r>
       <r>    6.3745    1.0147 </r>
       <r>    6.4166    1.0239 </r>
       <r>    6.4471    1.0307 </r>
       <r>    6.4861    1.0354 </r>
       <r>    6.5260    1.0284 </r>
       <r>    6.5787    0.9822 </r>
       <r>    6.5924    0.9607 </r>
       <r>    6.6619    0.7805 </r>
       <r>    6.7207    0.5515 </r>
       <r>    6.7734    0.3324 </r>
       <r>    7.0599   -0.0214 </r>
       <r>    7.0913   -0.0147 </r>
       <r>    7.1132   -0.0108 </r>
       <r>    7.2103   -0.0019 </r>
       <r>    7.2638   -0.0006 </r>
       <r>    7.3933   -0.0000 </r>
       <r>    7.4302   -0.0000 </r>
       <r>    7.5654   -0.0000 </r>
       <r>    7.7251   -0.0000 </r>
       <r>    7.7810   -0.0000 </r>
       <r>    7.8621   -0.0000 </r>
       <r>    7.9616   -0.0000 </r>
       <r>    8.0589   -0.0000 </r>
       <r>    8.1900   -0.0000 </r>
       <r>    8.3736   -0.0000 </r>
       <r>    8.4497   -0.0000 </r>
       <r>    8.5811   -0.0000 </r>
       <r>    8.6082   -0.0000 </r>
       <r>    8.6676   -0.0000 </r>
       <r>    8.7044   -0.0000 </r>
       <r>    8.7665   -0.0000 </r>
      </set>
      <set comment="kpoint 5">
       <r>  -47.2244    1.0000 </r>
       <r>  -47.1995    1.0000 </r>
       <r>  -47.1571    1.0000 </r>
       <r>  -47.1028    1.0000 </r>
       <r>  -47.0693    1.0000 </r>
       <r>  -46.9882    1.0000 </r>
       <r>  -23.9033    1.0000 </r>
       <r>  -23.8281    1.0000 </r>
       <r>  -23.6743    1.0000 </r>
       <r>  -23.6261    1.0000 </r>
       <r>  -23.3976    1.0000 </r>
       <r>  -23.3944    1.0000 </r>
       <r>  -23.3850    1.0000 </r>
       <r>  -23.3385    1.0000 </r>
       <r>  -23.3173    1.0000 </r>
       <r>  -23.3042    1.0000 </r>
       <r>  -23.2701    1.0000 </r>
       <r>  -23.2288    1.0000 </r>
       <r>  -23.1989    1.0000 </r>
       <r>  -23.1680    1.0000 </r>
       <r>  -23.0221    1.0000 </r>
       <r>  -22.9997    1.0000 </r>
       <r>  -22.8447    1.0000 </r>
       <r>  -22.7433    1.0000 </r>
       <r>    0.2349    1.0000 </r>
       <r>    1.4679    1.0000 </r>
       <r>    1.8838    1.0000 </r>
       <r>    2.4047    1.0000 </r>
       <r>    2.6512    1.0000 </r>
       <r>    2.8004    1.0000 </r>
       <r>    2.8153    1.0000 </r>
       <r>    2.8924    1.0000 </r>
       <r>    2.9544    1.0000 </r>
       <r>    3.0451    1.0000 </r>
       <r>    3.1028    1.0000 </r>
       <r>    3.2015    1.0000 </r>
       <r>    3.2901    1.0000 </r>
       <r>    3.3533    1.0000 </r>
       <r>    3.3932    1.0000 </r>
       <r>    3.4523    1.0000 </r>
       <r>    3.4988    1.0000 </r>
       <r>    3.5032    1.0000 </r>
       <r>    3.7050    1.0000 </r>
       <r>    3.7434    1.0000 </r>
       <r>    3.8055    1.0000 </r>
       <r>    3.8853    1.0000 </r>
       <r>    3.9330    1.0000 </r>
       <r>    4.0202    1.0000 </r>
       <r>    4.1359    1.0000 </r>
       <r>    4.1838    1.0000 </r>
       <r>    4.2163    1.0000 </r>
       <r>    4.3091    1.0000 </r>
       <r>    4.3765    1.0000 </r>
       <r>    4.4472    1.0000 </r>
       <r>    4.5121    1.0000 </r>
       <r>    4.5638    1.0000 </r>
       <r>    4.6808    1.0000 </r>
       <r>    4.7586    1.0000 </r>
       <r>    4.8272    1.0000 </r>
       <r>    4.9112    1.0000 </r>
       <r>    4.9624    1.0000 </r>
       <r>    4.9873    1.0000 </r>
       <r>    5.0790    1.0000 </r>
       <r>    5.0987    1.0000 </r>
       <r>    5.1356    1.0000 </r>
       <r>    5.2231    1.0000 </r>
       <r>    5.2571    1.0000 </r>
       <r>    5.2990    1.0000 </r>
       <r>    5.3385    1.0000 </r>
       <r>    5.3654    1.0000 </r>
       <r>    5.4014    1.0000 </r>
       <r>    5.4188    1.0000 </r>
       <r>    5.4494    1.0000 </r>
       <r>    5.5080    1.0000 </r>
       <r>    5.5372    1.0000 </r>
       <r>    5.6029    1.0000 </r>
       <r>    5.6914    1.0000 </r>
       <r>    5.7128    1.0000 </r>
       <r>    5.7992    1.0000 </r>
       <r>    5.8610    1.0000 </r>
       <r>    5.9179    1.0000 </r>
       <r>    5.9837    1.0000 </r>
       <r>    6.0541    1.0000 </r>
       <r>    6.0692    1.0000 </r>
       <r>    6.1287    1.0001 </r>
       <r>    6.1872    1.0004 </r>
       <r>    6.2336    1.0012 </r>
       <r>    6.3200    1.0065 </r>
       <r>    6.3508    1.0106 </r>
       <r>    6.3860    1.0171 </r>
       <r>    6.4195    1.0246 </r>
       <r>    6.4497    1.0312 </r>
       <r>    6.4886    1.0355 </r>
       <r>    6.5170    1.0315 </r>
       <r>    6.6089    0.9287 </r>
       <r>    6.6734    0.7398 </r>
       <r>    6.7098    0.5967 </r>
       <r>    6.8078    0.2063 </r>
       <r>    6.8520    0.0820 </r>
       <r>    6.9040   -0.0030 </r>
       <r>    6.9565   -0.0335 </r>
       <r>    7.0172   -0.0309 </r>
       <r>    7.0835   -0.0163 </r>
       <r>    7.1034   -0.0125 </r>
       <r>    7.1486   -0.0061 </r>
       <r>    7.2347   -0.0011 </r>
       <r>    7.2897   -0.0003 </r>
       <r>    7.3401   -0.0001 </r>
       <r>    7.4087   -0.0000 </r>
       <r>    7.4602   -0.0000 </r>
       <r>    7.5139   -0.0000 </r>
       <r>    7.9400   -0.0000 </r>
       <r>    8.2174   -0.0000 </r>
       <r>    8.3249   -0.0000 </r>
       <r>    8.4020   -0.0000 </r>
       <r>    8.4356   -0.0000 </r>
       <r>    8.5955   -0.0000 </r>
       <r>    8.6600   -0.0000 </r>
       <r>    8.7001   -0.0000 </r>
       <r>    8.7648   -0.0000 </r>
      </set>
      <set comment="kpoint 6">
       <r>  -47.2211    1.0000 </r>
       <r>  -47.1887    1.0000 </r>
       <r>  -47.1495    1.0000 </r>
       <r>  -47.0988    1.0000 </r>
       <r>  -47.0673    1.0000 </r>
       <r>  -47.0148    1.0000 </r>
       <r>  -23.8524    1.0000 </r>
       <r>  -23.6978    1.0000 </r>
       <r>  -23.6465    1.0000 </r>
       <r>  -23.5156    1.0000 </r>
       <r>  -23.4054    1.0000 </r>
       <r>  -23.3983    1.0000 </r>
       <r>  -23.3707    1.0000 </r>
       <r>  -23.3406    1.0000 </r>
       <r>  -23.3168    1.0000 </r>
       <r>  -23.3050    1.0000 </r>
       <r>  -23.2747    1.0000 </r>
       <r>  -23.2377    1.0000 </r>
       <r>  -23.2215    1.0000 </r>
       <r>  -23.1739    1.0000 </r>
       <r>  -23.1085    1.0000 </r>
       <r>  -23.0207    1.0000 </r>
       <r>  -22.9923    1.0000 </r>
       <r>  -22.8388    1.0000 </r>
       <r>    0.9844    1.0000 </r>
       <r>    1.9727    1.0000 </r>
       <r>    2.3238    1.0000 </r>
       <r>    2.5210    1.0000 </r>
       <r>    2.6471    1.0000 </r>
       <r>    2.7846    1.0000 </r>
       <r>    3.0728    1.0000 </r>
       <r>    3.2722    1.0000 </r>
       <r>    3.3935    1.0000 </r>
       <r>    3.4352    1.0000 </r>
       <r>    3.5057    1.0000 </r>
       <r>    3.5497    1.0000 </r>
       <r>    3.5919    1.0000 </r>
       <r>    3.6634    1.0000 </r>
       <r>    3.6868    1.0000 </r>
       <r>    3.7659    1.0000 </r>
       <r>    3.8299    1.0000 </r>
       <r>    3.8487    1.0000 </r>
       <r>    3.9419    1.0000 </r>
       <r>    3.9875    1.0000 </r>
       <r>    4.0066    1.0000 </r>
       <r>    4.0541    1.0000 </r>
       <r>    4.1261    1.0000 </r>
       <r>    4.2010    1.0000 </r>
       <r>    4.2722    1.0000 </r>
       <r>    4.3419    1.0000 </r>
       <r>    4.3957    1.0000 </r>
       <r>    4.4661    1.0000 </r>
       <r>    4.5164    1.0000 </r>
       <r>    4.5496    1.0000 </r>
       <r>    4.6211    1.0000 </r>
       <r>    4.6728    1.0000 </r>
       <r>    4.7295    1.0000 </r>
       <r>    4.8156    1.0000 </r>
       <r>    4.8890    1.0000 </r>
       <r>    5.0083    1.0000 </r>
       <r>    5.0382    1.0000 </r>
       <r>    5.0574    1.0000 </r>
       <r>    5.1229    1.0000 </r>
       <r>    5.1784    1.0000 </r>
       <r>    5.2131    1.0000 </r>
       <r>    5.2705    1.0000 </r>
       <r>    5.2956    1.0000 </r>
       <r>    5.3540    1.0000 </r>
       <r>    5.3826    1.0000 </r>
       <r>    5.4348    1.0000 </r>
       <r>    5.4887    1.0000 </r>
       <r>    5.4998    1.0000 </r>
       <r>    5.5444    1.0000 </r>
       <r>    5.5958    1.0000 </r>
       <r>    5.6356    1.0000 </r>
       <r>    5.6799    1.0000 </r>
       <r>    5.7091    1.0000 </r>
       <r>    5.8039    1.0000 </r>
       <r>    5.8398    1.0000 </r>
       <r>    5.9109    1.0000 </r>
       <r>    5.9389    1.0000 </r>
       <r>    6.0079    1.0000 </r>
       <r>    6.0599    1.0000 </r>
       <r>    6.0821    1.0000 </r>
       <r>    6.1021    1.0000 </r>
       <r>    6.1411    1.0001 </r>
       <r>    6.2142    1.0008 </r>
       <r>    6.2339    1.0012 </r>
       <r>    6.2795    1.0031 </r>
       <r>    6.3183    1.0063 </r>
       <r>    6.3451    1.0097 </r>
       <r>    6.3900    1.0179 </r>
       <r>    6.4147    1.0235 </r>
       <r>    6.4477    1.0308 </r>
       <r>    6.4820    1.0353 </r>
       <r>    6.5077    1.0337 </r>
       <r>    6.5570    1.0077 </r>
       <r>    6.5887    0.9669 </r>
       <r>    6.6176    0.9091 </r>
       <r>    6.6465    0.8304 </r>
       <r>    6.6837    0.7011 </r>
       <r>    6.7475    0.4381 </r>
       <r>    6.8000    0.2328 </r>
       <r>    6.8282    0.1429 </r>
       <r>    6.8860    0.0192 </r>
       <r>    6.8952    0.0071 </r>
       <r>    7.0173   -0.0309 </r>
       <r>    7.1249   -0.0091 </r>
       <r>    7.1681   -0.0043 </r>
       <r>    7.2585   -0.0006 </r>
       <r>    7.3322   -0.0001 </r>
       <r>    7.6860   -0.0000 </r>
       <r>    7.8091   -0.0000 </r>
       <r>    7.8748   -0.0000 </r>
       <r>    7.9602   -0.0000 </r>
       <r>    8.0788   -0.0000 </r>
       <r>    8.1443   -0.0000 </r>
       <r>    8.2049   -0.0000 </r>
       <r>    8.2643   -0.0000 </r>
       <r>    8.3095   -0.0000 </r>
      </set>
      <set comment="kpoint 7">
       <r>  -47.2207    1.0000 </r>
       <r>  -47.1884    1.0000 </r>
       <r>  -47.1496    1.0000 </r>
       <r>  -47.0992    1.0000 </r>
       <r>  -47.0674    1.0000 </r>
       <r>  -47.0148    1.0000 </r>
       <r>  -23.8507    1.0000 </r>
       <r>  -23.6941    1.0000 </r>
       <r>  -23.6415    1.0000 </r>
       <r>  -23.5156    1.0000 </r>
       <r>  -23.4054    1.0000 </r>
       <r>  -23.3983    1.0000 </r>
       <r>  -23.3708    1.0000 </r>
       <r>  -23.3407    1.0000 </r>
       <r>  -23.3167    1.0000 </r>
       <r>  -23.3051    1.0000 </r>
       <r>  -23.2746    1.0000 </r>
       <r>  -23.2376    1.0000 </r>
       <r>  -23.2216    1.0000 </r>
       <r>  -23.1740    1.0000 </r>
       <r>  -23.1085    1.0000 </r>
       <r>  -23.0294    1.0000 </r>
       <r>  -22.9952    1.0000 </r>
       <r>  -22.8393    1.0000 </r>
       <r>    1.3481    1.0000 </r>
       <r>    2.0212    1.0000 </r>
       <r>    2.1454    1.0000 </r>
       <r>    2.4368    1.0000 </r>
       <r>    2.7064    1.0000 </r>
       <r>    2.9355    1.0000 </r>
       <r>    3.0352    1.0000 </r>
       <r>    3.1309    1.0000 </r>
       <r>    3.3588    1.0000 </r>
       <r>    3.3911    1.0000 </r>
       <r>    3.4564    1.0000 </r>
       <r>    3.4790    1.0000 </r>
       <r>    3.5308    1.0000 </r>
       <r>    3.6145    1.0000 </r>
       <r>    3.6815    1.0000 </r>
       <r>    3.7513    1.0000 </r>
       <r>    3.7883    1.0000 </r>
       <r>    3.8360    1.0000 </r>
       <r>    3.9097    1.0000 </r>
       <r>    3.9505    1.0000 </r>
       <r>    4.0312    1.0000 </r>
       <r>    4.1337    1.0000 </r>
       <r>    4.1702    1.0000 </r>
       <r>    4.2764    1.0000 </r>
       <r>    4.3425    1.0000 </r>
       <r>    4.3981    1.0000 </r>
       <r>    4.4333    1.0000 </r>
       <r>    4.4823    1.0000 </r>
       <r>    4.5500    1.0000 </r>
       <r>    4.6571    1.0000 </r>
       <r>    4.7455    1.0000 </r>
       <r>    4.8269    1.0000 </r>
       <r>    4.8803    1.0000 </r>
       <r>    4.9121    1.0000 </r>
       <r>    4.9258    1.0000 </r>
       <r>    4.9697    1.0000 </r>
       <r>    4.9847    1.0000 </r>
       <r>    5.0667    1.0000 </r>
       <r>    5.0805    1.0000 </r>
       <r>    5.1443    1.0000 </r>
       <r>    5.1931    1.0000 </r>
       <r>    5.2474    1.0000 </r>
       <r>    5.2993    1.0000 </r>
       <r>    5.3423    1.0000 </r>
       <r>    5.3777    1.0000 </r>
       <r>    5.3940    1.0000 </r>
       <r>    5.4084    1.0000 </r>
       <r>    5.5130    1.0000 </r>
       <r>    5.5394    1.0000 </r>
       <r>    5.5923    1.0000 </r>
       <r>    5.6595    1.0000 </r>
       <r>    5.6696    1.0000 </r>
       <r>    5.7264    1.0000 </r>
       <r>    5.7549    1.0000 </r>
       <r>    5.8406    1.0000 </r>
       <r>    5.8934    1.0000 </r>
       <r>    5.9159    1.0000 </r>
       <r>    5.9717    1.0000 </r>
       <r>    5.9978    1.0000 </r>
       <r>    6.0638    1.0000 </r>
       <r>    6.1572    1.0002 </r>
       <r>    6.1951    1.0005 </r>
       <r>    6.2385    1.0013 </r>
       <r>    6.2808    1.0032 </r>
       <r>    6.3241    1.0069 </r>
       <r>    6.3634    1.0127 </r>
       <r>    6.4126    1.0230 </r>
       <r>    6.4318    1.0274 </r>
       <r>    6.4573    1.0325 </r>
       <r>    6.4929    1.0354 </r>
       <r>    6.5339    1.0246 </r>
       <r>    6.5855    0.9721 </r>
       <r>    6.6224    0.8975 </r>
       <r>    6.6721    0.7445 </r>
       <r>    6.6977    0.6462 </r>
       <r>    6.7185    0.5606 </r>
       <r>    6.7477    0.4376 </r>
       <r>    6.7814    0.3011 </r>
       <r>    6.8062    0.2116 </r>
       <r>    6.8575    0.0699 </r>
       <r>    6.8880    0.0165 </r>
       <r>    6.9287   -0.0228 </r>
       <r>    6.9673   -0.0350 </r>
       <r>    6.9889   -0.0350 </r>
       <r>    7.0962   -0.0138 </r>
       <r>    7.1512   -0.0059 </r>
       <r>    7.2899   -0.0003 </r>
       <r>    7.3200   -0.0001 </r>
       <r>    7.3486   -0.0001 </r>
       <r>    7.4670   -0.0000 </r>
       <r>    7.7437   -0.0000 </r>
       <r>    7.9234   -0.0000 </r>
       <r>    8.1453   -0.0000 </r>
       <r>    8.1573   -0.0000 </r>
       <r>    8.2142   -0.0000 </r>
       <r>    8.2503   -0.0000 </r>
      </set>
      <set comment="kpoint 8">
       <r>  -47.2239    1.0000 </r>
       <r>  -47.1990    1.0000 </r>
       <r>  -47.1571    1.0000 </r>
       <r>  -47.1034    1.0000 </r>
       <r>  -47.0696    1.0000 </r>
       <r>  -46.9882    1.0000 </r>
       <r>  -23.9030    1.0000 </r>
       <r>  -23.8251    1.0000 </r>
       <r>  -23.6631    1.0000 </r>
       <r>  -23.6239    1.0000 </r>
       <r>  -23.3976    1.0000 </r>
       <r>  -23.3947    1.0000 </r>
       <r>  -23.3853    1.0000 </r>
       <r>  -23.3385    1.0000 </r>
       <r>  -23.3174    1.0000 </r>
       <r>  -23.3041    1.0000 </r>
       <r>  -23.2699    1.0000 </r>
       <r>  -23.2287    1.0000 </r>
       <r>  -23.1990    1.0000 </r>
       <r>  -23.1682    1.0000 </r>
       <r>  -23.0298    1.0000 </r>
       <r>  -23.0105    1.0000 </r>
       <r>  -22.8457    1.0000 </r>
       <r>  -22.7433    1.0000 </r>
       <r>    0.4744    1.0000 </r>
       <r>    1.6159    1.0000 </r>
       <r>    1.8679    1.0000 </r>
       <r>    2.0612    1.0000 </r>
       <r>    2.6129    1.0000 </r>
       <r>    2.8537    1.0000 </r>
       <r>    2.9432    1.0000 </r>
       <r>    3.0180    1.0000 </r>
       <r>    3.0265    1.0000 </r>
       <r>    3.0713    1.0000 </r>
       <r>    3.2083    1.0000 </r>
       <r>    3.2473    1.0000 </r>
       <r>    3.2976    1.0000 </r>
       <r>    3.3411    1.0000 </r>
       <r>    3.3712    1.0000 </r>
       <r>    3.4200    1.0000 </r>
       <r>    3.4697    1.0000 </r>
       <r>    3.5423    1.0000 </r>
       <r>    3.6457    1.0000 </r>
       <r>    3.7104    1.0000 </r>
       <r>    3.7893    1.0000 </r>
       <r>    3.8614    1.0000 </r>
       <r>    3.9306    1.0000 </r>
       <r>    4.0491    1.0000 </r>
       <r>    4.0905    1.0000 </r>
       <r>    4.1555    1.0000 </r>
       <r>    4.1969    1.0000 </r>
       <r>    4.2675    1.0000 </r>
       <r>    4.3286    1.0000 </r>
       <r>    4.4208    1.0000 </r>
       <r>    4.4959    1.0000 </r>
       <r>    4.5740    1.0000 </r>
       <r>    4.7360    1.0000 </r>
       <r>    4.7868    1.0000 </r>
       <r>    4.8577    1.0000 </r>
       <r>    4.9185    1.0000 </r>
       <r>    5.0116    1.0000 </r>
       <r>    5.0617    1.0000 </r>
       <r>    5.0885    1.0000 </r>
       <r>    5.1803    1.0000 </r>
       <r>    5.2610    1.0000 </r>
       <r>    5.2692    1.0000 </r>
       <r>    5.3593    1.0000 </r>
       <r>    5.3779    1.0000 </r>
       <r>    5.4215    1.0000 </r>
       <r>    5.4400    1.0000 </r>
       <r>    5.5357    1.0000 </r>
       <r>    5.5784    1.0000 </r>
       <r>    5.5826    1.0000 </r>
       <r>    5.6311    1.0000 </r>
       <r>    5.6758    1.0000 </r>
       <r>    5.7253    1.0000 </r>
       <r>    5.7641    1.0000 </r>
       <r>    5.7785    1.0000 </r>
       <r>    5.8008    1.0000 </r>
       <r>    5.8693    1.0000 </r>
       <r>    5.8891    1.0000 </r>
       <r>    5.9262    1.0000 </r>
       <r>    5.9652    1.0000 </r>
       <r>    6.0224    1.0000 </r>
       <r>    6.1064    1.0000 </r>
       <r>    6.2075    1.0006 </r>
       <r>    6.2348    1.0012 </r>
       <r>    6.2860    1.0035 </r>
       <r>    6.3379    1.0087 </r>
       <r>    6.3720    1.0143 </r>
       <r>    6.4172    1.0241 </r>
       <r>    6.4756    1.0349 </r>
       <r>    6.5190    1.0309 </r>
       <r>    6.5797    0.9808 </r>
       <r>    6.6153    0.9145 </r>
       <r>    6.6454    0.8336 </r>
       <r>    6.6837    0.7011 </r>
       <r>    6.7001    0.6367 </r>
       <r>    6.7231    0.5413 </r>
       <r>    6.8094    0.2011 </r>
       <r>    6.8520    0.0820 </r>
       <r>    6.8747    0.0369 </r>
       <r>    6.9119   -0.0106 </r>
       <r>    6.9386   -0.0279 </r>
       <r>    6.9827   -0.0354 </r>
       <r>    7.0442   -0.0251 </r>
       <r>    7.0848   -0.0160 </r>
       <r>    7.2565   -0.0007 </r>
       <r>    7.3795   -0.0000 </r>
       <r>    7.4369   -0.0000 </r>
       <r>    7.5169   -0.0000 </r>
       <r>    7.6508   -0.0000 </r>
       <r>    7.9471   -0.0000 </r>
       <r>    7.9775   -0.0000 </r>
       <r>    8.0194   -0.0000 </r>
       <r>    8.1097   -0.0000 </r>
       <r>    8.1965   -0.0000 </r>
       <r>    8.2771   -0.0000 </r>
       <r>    8.3307   -0.0000 </r>
       <r>    8.4576   -0.0000 </r>
      </set>
      <set comment="kpoint 9">
       <r>  -47.2271    1.0000 </r>
       <r>  -47.2048    1.0000 </r>
       <r>  -47.1598    1.0000 </r>
       <r>  -47.1049    1.0000 </r>
       <r>  -47.0703    1.0000 </r>
       <r>  -46.9751    1.0000 </r>
       <r>  -24.0037    1.0000 </r>
       <r>  -23.8360    1.0000 </r>
       <r>  -23.6674    1.0000 </r>
       <r>  -23.6282    1.0000 </r>
       <r>  -23.4003    1.0000 </r>
       <r>  -23.3926    1.0000 </r>
       <r>  -23.3868    1.0000 </r>
       <r>  -23.3362    1.0000 </r>
       <r>  -23.3184    1.0000 </r>
       <r>  -23.2988    1.0000 </r>
       <r>  -23.2674    1.0000 </r>
       <r>  -23.2247    1.0000 </r>
       <r>  -23.1885    1.0000 </r>
       <r>  -23.1654    1.0000 </r>
       <r>  -23.0275    1.0000 </r>
       <r>  -23.0074    1.0000 </r>
       <r>  -22.8437    1.0000 </r>
       <r>  -22.6105    1.0000 </r>
       <r>    0.3962    1.0000 </r>
       <r>    1.1773    1.0000 </r>
       <r>    1.5378    1.0000 </r>
       <r>    2.0148    1.0000 </r>
       <r>    2.3345    1.0000 </r>
       <r>    2.5633    1.0000 </r>
       <r>    2.7091    1.0000 </r>
       <r>    2.7706    1.0000 </r>
       <r>    2.8340    1.0000 </r>
       <r>    2.8976    1.0000 </r>
       <r>    2.9839    1.0000 </r>
       <r>    3.1008    1.0000 </r>
       <r>    3.1264    1.0000 </r>
       <r>    3.1927    1.0000 </r>
       <r>    3.2170    1.0000 </r>
       <r>    3.2821    1.0000 </r>
       <r>    3.3935    1.0000 </r>
       <r>    3.4637    1.0000 </r>
       <r>    3.5393    1.0000 </r>
       <r>    3.6589    1.0000 </r>
       <r>    3.7036    1.0000 </r>
       <r>    3.7662    1.0000 </r>
       <r>    3.8011    1.0000 </r>
       <r>    3.8607    1.0000 </r>
       <r>    3.9306    1.0000 </r>
       <r>    4.0507    1.0000 </r>
       <r>    4.1288    1.0000 </r>
       <r>    4.1758    1.0000 </r>
       <r>    4.2152    1.0000 </r>
       <r>    4.2656    1.0000 </r>
       <r>    4.3966    1.0000 </r>
       <r>    4.5165    1.0000 </r>
       <r>    4.7715    1.0000 </r>
       <r>    4.8494    1.0000 </r>
       <r>    4.8981    1.0000 </r>
       <r>    4.9661    1.0000 </r>
       <r>    5.0147    1.0000 </r>
       <r>    5.0781    1.0000 </r>
       <r>    5.1588    1.0000 </r>
       <r>    5.1989    1.0000 </r>
       <r>    5.2186    1.0000 </r>
       <r>    5.2536    1.0000 </r>
       <r>    5.3299    1.0000 </r>
       <r>    5.3643    1.0000 </r>
       <r>    5.3879    1.0000 </r>
       <r>    5.4254    1.0000 </r>
       <r>    5.4509    1.0000 </r>
       <r>    5.4713    1.0000 </r>
       <r>    5.5404    1.0000 </r>
       <r>    5.5814    1.0000 </r>
       <r>    5.6128    1.0000 </r>
       <r>    5.6601    1.0000 </r>
       <r>    5.6662    1.0000 </r>
       <r>    5.7630    1.0000 </r>
       <r>    5.8016    1.0000 </r>
       <r>    5.9165    1.0000 </r>
       <r>    5.9966    1.0000 </r>
       <r>    6.0907    1.0000 </r>
       <r>    6.1271    1.0001 </r>
       <r>    6.1845    1.0004 </r>
       <r>    6.2092    1.0007 </r>
       <r>    6.2783    1.0030 </r>
       <r>    6.3046    1.0049 </r>
       <r>    6.3232    1.0068 </r>
       <r>    6.3766    1.0152 </r>
       <r>    6.4061    1.0215 </r>
       <r>    6.4362    1.0284 </r>
       <r>    6.4597    1.0329 </r>
       <r>    6.5068    1.0339 </r>
       <r>    6.5467    1.0164 </r>
       <r>    6.5864    0.9707 </r>
       <r>    6.6273    0.8849 </r>
       <r>    6.6895    0.6788 </r>
       <r>    6.7294    0.5146 </r>
       <r>    6.7462    0.4438 </r>
       <r>    6.8287    0.1415 </r>
       <r>    6.8939    0.0086 </r>
       <r>    6.9054   -0.0044 </r>
       <r>    6.9277   -0.0222 </r>
       <r>    6.9920   -0.0348 </r>
       <r>    7.0521   -0.0232 </r>
       <r>    7.0859   -0.0158 </r>
       <r>    7.2084   -0.0020 </r>
       <r>    7.2890   -0.0003 </r>
       <r>    7.6074   -0.0000 </r>
       <r>    7.6533   -0.0000 </r>
       <r>    7.7325   -0.0000 </r>
       <r>    8.1752   -0.0000 </r>
       <r>    8.2692   -0.0000 </r>
       <r>    8.3186   -0.0000 </r>
       <r>    8.4349   -0.0000 </r>
       <r>    8.4793   -0.0000 </r>
       <r>    8.5185   -0.0000 </r>
       <r>    8.5621   -0.0000 </r>
       <r>    8.6218   -0.0000 </r>
       <r>    8.6926   -0.0000 </r>
      </set>
      <set comment="kpoint 10">
       <r>  -47.2242    1.0000 </r>
       <r>  -47.1993    1.0000 </r>
       <r>  -47.1571    1.0000 </r>
       <r>  -47.1030    1.0000 </r>
[...]
       <r>    4.9733    1.0000 </r>
       <r>    5.0218    1.0000 </r>
       <r>    5.0404    1.0000 </r>
       <r>    5.1004    1.0000 </r>
       <r>    5.1543    1.0000 </r>
       <r>    5.1850    1.0000 </r>
       <r>    5.2350    1.0000 </r>
       <r>    5.2938    1.0000 </r>
       <r>    5.3388    1.0000 </r>
       <r>    5.3593    1.0000 </r>
       <r>    5.4766    1.0000 </r>
       <r>    5.5267    1.0000 </r>
       <r>    5.5550    1.0000 </r>
       <r>    5.5889    1.0000 </r>
       <r>    5.6707    1.0000 </r>
       <r>    5.7092    1.0000 </r>
       <r>    5.7423    1.0000 </r>
       <r>    5.7801    1.0000 </r>
       <r>    5.8433    1.0000 </r>
       <r>    5.8789    1.0000 </r>
       <r>    5.9521    1.0000 </r>
       <r>    6.0100    1.0000 </r>
       <r>    6.0555    1.0000 </r>
       <r>    6.1084    1.0000 </r>
       <r>    6.1411    1.0001 </r>
       <r>    6.1787    1.0003 </r>
       <r>    6.2364    1.0013 </r>
       <r>    6.2400    1.0014 </r>
       <r>    6.3070    1.0051 </r>
       <r>    6.3396    1.0089 </r>
       <r>    6.3742    1.0147 </r>
       <r>    6.3963    1.0193 </r>
       <r>    6.4470    1.0307 </r>
       <r>    6.4913    1.0354 </r>
       <r>    6.5052    1.0342 </r>
       <r>    6.5421    1.0197 </r>
       <r>    6.5667    0.9975 </r>
       <r>    6.5993    0.9482 </r>
       <r>    6.6193    0.9050 </r>
       <r>    6.7491    0.4314 </r>
       <r>    6.8367    0.1195 </r>
       <r>    6.9059   -0.0049 </r>
       <r>    6.9278   -0.0223 </r>
       <r>    7.0149   -0.0314 </r>
       <r>    7.0925   -0.0145 </r>
       <r>    7.2081   -0.0020 </r>
       <r>    7.2963   -0.0003 </r>
       <r>    7.3887   -0.0000 </r>
       <r>    7.6355   -0.0000 </r>
       <r>    7.7495   -0.0000 </r>
       <r>    7.8151   -0.0000 </r>
       <r>    7.8773   -0.0000 </r>
       <r>    7.9996   -0.0000 </r>
       <r>    8.4015   -0.0000 </r>
       <r>    8.4628   -0.0000 </r>
       <r>    8.5246   -0.0000 </r>
       <r>    8.6229   -0.0000 </r>
       <r>    8.6546   -0.0000 </r>
       <r>    8.7047   -0.0000 </r>
       <r>    8.7574   -0.0000 </r>
      </set>
     </set>
    </set>
   </array>
  </eigenvalues>
  <separator name="orbital magnetization" >
   <v name="MAGDIPOLOUT">      0.00000000      0.00000000      0.00000000</v>
  </separator>
  <dos>
   <i name="efermi">      6.73287024 </i>
   <total>
    <array>
     <dimension dim="1">gridpoints</dimension>
     <dimension dim="2">spin</dimension>
     <field>energy</field>
     <field>total</field>
     <field>integrated</field>
     <set>
      <set comment="spin 1">
       <r>   -50.0338     0.0000     0.0000 </r>
       <r>   -49.8280     0.0000     0.0000 </r>
       <r>   -49.6222     0.0000     0.0000 </r>
       <r>   -49.4164     0.0000     0.0000 </r>
       <r>   -49.2106     0.0000     0.0000 </r>
       <r>   -49.0048    -0.0000    -0.0000 </r>
       <r>   -48.7990    -0.0000    -0.0000 </r>
       <r>   -48.5932    -0.0000    -0.0000 </r>
       <r>   -48.3874    -0.0000    -0.0000 </r>
       <r>   -48.1816    -0.0000    -0.0000 </r>
       <r>   -47.9758    -0.0000    -0.0000 </r>
       <r>   -47.7700    -0.0064    -0.0013 </r>
       <r>   -47.5642    -0.4047    -0.0846 </r>
       <r>   -47.3584    -0.0641    -0.0978 </r>
       <r>   -47.1526    24.3338     4.9101 </r>
       <r>   -46.9468    31.5712    11.4075 </r>
       <r>   -46.7410     3.6660    12.1619 </r>
       <r>   -46.5352    -0.7519    12.0072 </r>
       <r>   -46.3294    -0.0348    12.0000 </r>
       <r>   -46.1236    -0.0002    12.0000 </r>
       <r>   -45.9178    -0.0000    12.0000 </r>
       <r>   -45.7120    -0.0000    12.0000 </r>
       <r>   -45.5062     0.0000    12.0000 </r>
       <r>   -45.3004     0.0000    12.0000 </r>
       <r>   -45.0946     0.0000    12.0000 </r>
       <r>   -44.8888     0.0000    12.0000 </r>
       <r>   -44.6830     0.0000    12.0000 </r>
       <r>   -44.4772     0.0000    12.0000 </r>
       <r>   -44.2714     0.0000    12.0000 </r>
       <r>   -44.0656     0.0000    12.0000 </r>
       <r>   -43.8598     0.0000    12.0000 </r>
       <r>   -43.6540     0.0000    12.0000 </r>
       <r>   -43.4482     0.0000    12.0000 </r>
       <r>   -43.2424     0.0000    12.0000 </r>
       <r>   -43.0366     0.0000    12.0000 </r>
       <r>   -42.8308     0.0000    12.0000 </r>
       <r>   -42.6250     0.0000    12.0000 </r>
       <r>   -42.4192     0.0000    12.0000 </r>
       <r>   -42.2134     0.0000    12.0000 </r>
       <r>   -42.0076     0.0000    12.0000 </r>
       <r>   -41.8018     0.0000    12.0000 </r>
       <r>   -41.5960     0.0000    12.0000 </r>
       <r>   -41.3902     0.0000    12.0000 </r>
       <r>   -41.1844     0.0000    12.0000 </r>
       <r>   -40.9786     0.0000    12.0000 </r>
       <r>   -40.7728     0.0000    12.0000 </r>
       <r>   -40.5670     0.0000    12.0000 </r>
       <r>   -40.3612     0.0000    12.0000 </r>
       <r>   -40.1554     0.0000    12.0000 </r>
       <r>   -39.9496     0.0000    12.0000 </r>
       <r>   -39.7438     0.0000    12.0000 </r>
       <r>   -39.5380     0.0000    12.0000 </r>
       <r>   -39.3322     0.0000    12.0000 </r>
       <r>   -39.1264     0.0000    12.0000 </r>
       <r>   -38.9206     0.0000    12.0000 </r>
       <r>   -38.7148     0.0000    12.0000 </r>
       <r>   -38.5090     0.0000    12.0000 </r>
       <r>   -38.3032     0.0000    12.0000 </r>
       <r>   -38.0974     0.0000    12.0000 </r>
       <r>   -37.8916     0.0000    12.0000 </r>
       <r>   -37.6858     0.0000    12.0000 </r>
       <r>   -37.4800     0.0000    12.0000 </r>
       <r>   -37.2742     0.0000    12.0000 </r>
       <r>   -37.0684     0.0000    12.0000 </r>
       <r>   -36.8626     0.0000    12.0000 </r>
       <r>   -36.6568     0.0000    12.0000 </r>
       <r>   -36.4510     0.0000    12.0000 </r>
       <r>   -36.2452     0.0000    12.0000 </r>
       <r>   -36.0394     0.0000    12.0000 </r>
       <r>   -35.8336     0.0000    12.0000 </r>
       <r>   -35.6278     0.0000    12.0000 </r>
       <r>   -35.4220     0.0000    12.0000 </r>
       <r>   -35.2162     0.0000    12.0000 </r>
       <r>   -35.0104     0.0000    12.0000 </r>
       <r>   -34.8046     0.0000    12.0000 </r>
       <r>   -34.5988     0.0000    12.0000 </r>
       <r>   -34.3930     0.0000    12.0000 </r>
       <r>   -34.1872     0.0000    12.0000 </r>
       <r>   -33.9814     0.0000    12.0000 </r>
       <r>   -33.7756     0.0000    12.0000 </r>
       <r>   -33.5698     0.0000    12.0000 </r>
       <r>   -33.3640     0.0000    12.0000 </r>
       <r>   -33.1582     0.0000    12.0000 </r>
       <r>   -32.9524     0.0000    12.0000 </r>
       <r>   -32.7466     0.0000    12.0000 </r>
       <r>   -32.5408     0.0000    12.0000 </r>
       <r>   -32.3350     0.0000    12.0000 </r>
       <r>   -32.1292     0.0000    12.0000 </r>
       <r>   -31.9234     0.0000    12.0000 </r>
       <r>   -31.7176     0.0000    12.0000 </r>
       <r>   -31.5118     0.0000    12.0000 </r>
       <r>   -31.3060     0.0000    12.0000 </r>
       <r>   -31.1002     0.0000    12.0000 </r>
       <r>   -30.8944     0.0000    12.0000 </r>
       <r>   -30.6886     0.0000    12.0000 </r>
       <r>   -30.4828     0.0000    12.0000 </r>
       <r>   -30.2770     0.0000    12.0000 </r>
       <r>   -30.0712     0.0000    12.0000 </r>
       <r>   -29.8654     0.0000    12.0000 </r>
       <r>   -29.6596     0.0000    12.0000 </r>
       <r>   -29.4538     0.0000    12.0000 </r>
       <r>   -29.2480     0.0000    12.0000 </r>
       <r>   -29.0422     0.0000    12.0000 </r>
       <r>   -28.8364     0.0000    12.0000 </r>
       <r>   -28.6306     0.0000    12.0000 </r>
       <r>   -28.4248     0.0000    12.0000 </r>
       <r>   -28.2190     0.0000    12.0000 </r>
       <r>   -28.0132     0.0000    12.0000 </r>
       <r>   -27.8074     0.0000    12.0000 </r>
       <r>   -27.6016     0.0000    12.0000 </r>
       <r>   -27.3957     0.0000    12.0000 </r>
       <r>   -27.1899     0.0000    12.0000 </r>
       <r>   -26.9841     0.0000    12.0000 </r>
       <r>   -26.7783     0.0000    12.0000 </r>
       <r>   -26.5725     0.0000    12.0000 </r>
       <r>   -26.3667     0.0000    12.0000 </r>
       <r>   -26.1609     0.0000    12.0000 </r>
       <r>   -25.9551     0.0000    12.0000 </r>
       <r>   -25.7493    -0.0000    12.0000 </r>
       <r>   -25.5435    -0.0000    12.0000 </r>
       <r>   -25.3377    -0.0000    12.0000 </r>
       <r>   -25.1319    -0.0000    12.0000 </r>
       <r>   -24.9261    -0.0000    12.0000 </r>
       <r>   -24.7203    -0.0000    12.0000 </r>
       <r>   -24.5145    -0.0021    11.9996 </r>
       <r>   -24.3087    -0.1000    11.9790 </r>
       <r>   -24.1029    -0.1474    11.9487 </r>
       <r>   -23.8971     5.8822    13.1592 </r>
       <r>   -23.6913    15.5298    16.3553 </r>
       <r>   -23.4855    19.6285    20.3948 </r>
       <r>   -23.2797    53.9218    31.4920 </r>
       <r>   -23.0739    48.2226    41.4162 </r>
       <r>   -22.8681    20.6898    45.6742 </r>
       <r>   -22.6623     9.6599    47.6622 </r>
       <r>   -22.4565     1.8277    48.0383 </r>
       <r>   -22.2507    -0.1516    48.0071 </r>
       <r>   -22.0449    -0.0341    48.0001 </r>
       <r>   -21.8391    -0.0005    48.0000 </r>
       <r>   -21.6333    -0.0000    48.0000 </r>
       <r>   -21.4275    -0.0000    48.0000 </r>
       <r>   -21.2217    -0.0000    48.0000 </r>
       <r>   -21.0159     0.0000    48.0000 </r>
       <r>   -20.8101     0.0000    48.0000 </r>
       <r>   -20.6043     0.0000    48.0000 </r>
       <r>   -20.3985     0.0000    48.0000 </r>
       <r>   -20.1927     0.0000    48.0000 </r>
       <r>   -19.9869     0.0000    48.0000 </r>
       <r>   -19.7811     0.0000    48.0000 </r>
       <r>   -19.5753     0.0000    48.0000 </r>
       <r>   -19.3695     0.0000    48.0000 </r>
       <r>   -19.1637     0.0000    48.0000 </r>
       <r>   -18.9579     0.0000    48.0000 </r>
       <r>   -18.7521     0.0000    48.0000 </r>
       <r>   -18.5463     0.0000    48.0000 </r>
       <r>   -18.3405     0.0000    48.0000 </r>
       <r>   -18.1347     0.0000    48.0000 </r>
       <r>   -17.9289     0.0000    48.0000 </r>
       <r>   -17.7231     0.0000    48.0000 </r>
       <r>   -17.5173     0.0000    48.0000 </r>
       <r>   -17.3115     0.0000    48.0000 </r>
       <r>   -17.1057     0.0000    48.0000 </r>
       <r>   -16.8999     0.0000    48.0000 </r>
       <r>   -16.6941     0.0000    48.0000 </r>
       <r>   -16.4883     0.0000    48.0000 </r>
       <r>   -16.2825     0.0000    48.0000 </r>
       <r>   -16.0767     0.0000    48.0000 </r>
       <r>   -15.8709     0.0000    48.0000 </r>
       <r>   -15.6651     0.0000    48.0000 </r>
       <r>   -15.4593     0.0000    48.0000 </r>
       <r>   -15.2535     0.0000    48.0000 </r>
       <r>   -15.0477     0.0000    48.0000 </r>
       <r>   -14.8419     0.0000    48.0000 </r>
       <r>   -14.6361     0.0000    48.0000 </r>
       <r>   -14.4303     0.0000    48.0000 </r>
       <r>   -14.2245     0.0000    48.0000 </r>
       <r>   -14.0187     0.0000    48.0000 </r>
       <r>   -13.8129     0.0000    48.0000 </r>
       <r>   -13.6071     0.0000    48.0000 </r>
       <r>   -13.4013     0.0000    48.0000 </r>
       <r>   -13.1955     0.0000    48.0000 </r>
       <r>   -12.9897     0.0000    48.0000 </r>
       <r>   -12.7839     0.0000    48.0000 </r>
       <r>   -12.5781     0.0000    48.0000 </r>
       <r>   -12.3723     0.0000    48.0000 </r>
       <r>   -12.1665     0.0000    48.0000 </r>
       <r>   -11.9607     0.0000    48.0000 </r>
       <r>   -11.7549     0.0000    48.0000 </r>
       <r>   -11.5491     0.0000    48.0000 </r>
       <r>   -11.3433     0.0000    48.0000 </r>
       <r>   -11.1375     0.0000    48.0000 </r>
       <r>   -10.9317     0.0000    48.0000 </r>
       <r>   -10.7259     0.0000    48.0000 </r>
       <r>   -10.5201     0.0000    48.0000 </r>
       <r>   -10.3143     0.0000    48.0000 </r>
       <r>   -10.1085     0.0000    48.0000 </r>
       <r>    -9.9027     0.0000    48.0000 </r>
       <r>    -9.6969     0.0000    48.0000 </r>
       <r>    -9.4911     0.0000    48.0000 </r>
       <r>    -9.2853     0.0000    48.0000 </r>
       <r>    -9.0795     0.0000    48.0000 </r>
       <r>    -8.8737     0.0000    48.0000 </r>
       <r>    -8.6679     0.0000    48.0000 </r>
       <r>    -8.4621     0.0000    48.0000 </r>
       <r>    -8.2563     0.0000    48.0000 </r>
       <r>    -8.0505     0.0000    48.0000 </r>
       <r>    -7.8447     0.0000    48.0000 </r>
       <r>    -7.6389     0.0000    48.0000 </r>
       <r>    -7.4331     0.0000    48.0000 </r>
       <r>    -7.2273     0.0000    48.0000 </r>
       <r>    -7.0215     0.0000    48.0000 </r>
       <r>    -6.8157     0.0000    48.0000 </r>
       <r>    -6.6099     0.0000    48.0000 </r>
       <r>    -6.4041     0.0000    48.0000 </r>
       <r>    -6.1983     0.0000    48.0000 </r>
       <r>    -5.9925     0.0000    48.0000 </r>
       <r>    -5.7867     0.0000    48.0000 </r>
       <r>    -5.5809     0.0000    48.0000 </r>
       <r>    -5.3751     0.0000    48.0000 </r>
       <r>    -5.1693     0.0000    48.0000 </r>
       <r>    -4.9635     0.0000    48.0000 </r>
       <r>    -4.7577     0.0000    48.0000 </r>
       <r>    -4.5519     0.0000    48.0000 </r>
       <r>    -4.3461     0.0000    48.0000 </r>
       <r>    -4.1403     0.0000    48.0000 </r>
       <r>    -3.9345     0.0000    48.0000 </r>
       <r>    -3.7287     0.0000    48.0000 </r>
       <r>    -3.5229     0.0000    48.0000 </r>
       <r>    -3.3171     0.0000    48.0000 </r>
       <r>    -3.1113     0.0000    48.0000 </r>
       <r>    -2.9055     0.0000    48.0000 </r>
       <r>    -2.6997     0.0000    48.0000 </r>
       <r>    -2.4939     0.0000    48.0000 </r>
       <r>    -2.2881     0.0000    48.0000 </r>
       <r>    -2.0823     0.0000    48.0000 </r>
       <r>    -1.8765    -0.0000    48.0000 </r>
       <r>    -1.6707    -0.0000    48.0000 </r>
       <r>    -1.4649    -0.0000    48.0000 </r>
       <r>    -1.2591    -0.0000    48.0000 </r>
       <r>    -1.0533    -0.0000    48.0000 </r>
       <r>    -0.8475    -0.0000    48.0000 </r>
       <r>    -0.6417    -0.0000    48.0000 </r>
       <r>    -0.4359    -0.0028    47.9994 </r>
       <r>    -0.2301    -0.0131    47.9967 </r>
       <r>    -0.0243     0.1677    48.0312 </r>
       <r>     0.1815     0.7305    48.1816 </r>
       <r>     0.3873     1.4397    48.4779 </r>
       <r>     0.5931     1.9732    48.8840 </r>
       <r>     0.7989     1.5339    49.1996 </r>
       <r>     1.0047     1.9101    49.5927 </r>
       <r>     1.2105     2.9547    50.2008 </r>
       <r>     1.4163     3.5136    50.9239 </r>
       <r>     1.6221     3.0083    51.5430 </r>
       <r>     1.8279     3.0060    52.1617 </r>
       <r>     2.0337     4.8312    53.1559 </r>
       <r>     2.2395     4.8733    54.1589 </r>
       <r>     2.4453     6.6719    55.5320 </r>
       <r>     2.6511     9.7287    57.5341 </r>
       <r>     2.8569    15.8037    60.7865 </r>
       <r>     3.0627    20.8475    65.0770 </r>
       <r>     3.2685    24.0453    70.0255 </r>
       <r>     3.4744    29.5924    76.1157 </r>
       <r>     3.6802    30.9173    82.4785 </r>
       <r>     3.8860    31.0803    88.8748 </r>
       <r>     4.0918    31.4347    95.3441 </r>
       <r>     4.2976    31.6733   101.8625 </r>
       <r>     4.5034    28.7648   107.7823 </r>
       <r>     4.7092    22.8868   112.4924 </r>
       <r>     4.9150    28.0185   118.2587 </r>
       <r>     5.1208    36.8148   125.8352 </r>
       <r>     5.3266    43.4521   134.7776 </r>
       <r>     5.5324    45.2415   144.0884 </r>
       <r>     5.7382    43.7564   153.0935 </r>
       <r>     5.9440    39.7390   161.2718 </r>
       <r>     6.1498    41.2164   169.7541 </r>
       <r>     6.3556    46.5703   179.3383 </r>
       <r>     6.5614    50.7028   189.7730 </r>
       <r>     6.7672    47.5233   199.5533 </r>
       <r>     6.9730    41.3940   208.0723 </r>
       <r>     7.1788    29.4055   214.1239 </r>
       <r>     7.3846    18.4518   217.9213 </r>
       <r>     7.5904    12.6820   220.5313 </r>
       <r>     7.7962    13.4598   223.3013 </r>
       <r>     8.0020    17.1151   226.8236 </r>
       <r>     8.2078    19.4514   230.8267 </r>
       <r>     8.4136    20.2628   234.9968 </r>
       <r>     8.6194    15.4779   238.1822 </r>
       <r>     8.8252     7.7609   239.7794 </r>
       <r>     9.0310     1.2661   240.0399 </r>
       <r>     9.2368    -0.1760   240.0037 </r>
       <r>     9.4426    -0.0178   240.0000 </r>
       <r>     9.6484    -0.0002   240.0000 </r>
       <r>     9.8542    -0.0000   240.0000 </r>
       <r>    10.0600    -0.0000   240.0000 </r>
       <r>    10.2658    -0.0000   240.0000 </r>
       <r>    10.4716     0.0000   240.0000 </r>
       <r>    10.6774     0.0000   240.0000 </r>
       <r>    10.8832     0.0000   240.0000 </r>
       <r>    11.0890     0.0000   240.0000 </r>
       <r>    11.2948     0.0000   240.0000 </r>
       <r>    11.5006     0.0000   240.0000 </r>
       <r>    11.7064     0.0000   240.0000 </r>
      </set>
     </set>
    </array>
   </total>
  </dos>
 </calculation>
 <structure name="finalpos" >
  <crystal>
   <varray name="basis" >
    <v>      -3.16000000      -3.16000000      -3.16000000 </v>
    <v>       1.58000000       1.58000000      -7.90000000 </v>
    <v>       7.90000000      -7.90000000      -1.58000000 </v>
   </varray>
   <i name="volume">    473.31744000 </i>
   <varray name="rec_basis" >
    <v>      -0.13713080      -0.12658228      -0.05274262 </v>
    <v>       0.04219409       0.06329114      -0.10548523 </v>
    <v>       0.06329114      -0.06329114       0.00000000 </v>
   </varray>
  </crystal>
  <varray name="positions" >
   <v>       0.96666667       0.93333333       0.40000000 </v>
   <v>       0.63333333       0.26666667       0.40000000 </v>
   <v>       0.50000000       0.00000000       0.00000000 </v>
   <v>       0.00000000       0.00000000       0.00000000 </v>
   <v>       0.10000000       0.20000000       0.80000000 </v>
   <v>       0.03333333       0.06666667       0.60000000 </v>
   <v>       0.90000000       0.80000000       0.20000000 </v>
   <v>       0.80000000       0.60000000       0.40000000 </v>
   <v>       0.73333333       0.46666667       0.20000000 </v>
   <v>       0.66666667       0.33333333       0.00000000 </v>
   <v>       0.36666667       0.73333333       0.60000000 </v>
   <v>       0.13333333       0.26666667       0.40000000 </v>
   <v>       0.83333333       0.66666667       0.00000000 </v>
   <v>       0.93333333       0.86666667       0.80000000 </v>
   <v>       0.56666667       0.13333333       0.20000000 </v>
   <v>       0.40000000       0.80000000       0.20000000 </v>
   <v>       0.43333333       0.86666667       0.80000000 </v>
   <v>       0.30000000       0.60000000       0.40000000 </v>
   <v>       0.86666667       0.73333333       0.60000000 </v>
   <v>       0.46666667       0.93333333       0.40000000 </v>
   <v>       0.16666667       0.33333333       0.00000000 </v>
   <v>       0.26666667       0.53333333       0.80000000 </v>
   <v>       0.20000000       0.40000000       0.60000000 </v>
   <v>       0.06666667       0.13333333       0.20000000 </v>
   <v>       0.76666667       0.53333333       0.80000000 </v>
   <v>       0.70000000       0.40000000       0.60000000 </v>
   <v>       0.60000000       0.20000000       0.80000000 </v>
   <v>       0.53333333       0.06666667       0.60000000 </v>
   <v>       0.33333333       0.66666667       0.00000000 </v>
   <v>       0.23333333       0.46666667       0.20000000 </v>
  </varray>
 </structure>
</modeling>
