  29  29   0   0
  0.1679057E+02  0.5525242E-09  0.8287863E-09  0.1139058E-08  0.5000000E-15
  1.000000000000000E-004
  CAR 
 SQS with 1 vacancy for VFE and VRV      
     11.96753436    -50.29384804  301      6.74883069      1.00000000
    -50.294  0.0000E+00  0.0000E+00
    -50.086  0.0000E+00  0.0000E+00
    -49.879  0.0000E+00  0.0000E+00
    -49.671  0.0000E+00  0.0000E+00
    -49.464  0.0000E+00  0.0000E+00
    -49.256 -0.6172E-35 -0.1281E-35
    -49.049 -0.2383E-27 -0.4945E-28
    -48.841 -0.1011E-20 -0.2098E-21
    -48.634 -0.4814E-15 -0.9990E-16
    -48.426 -0.2625E-10 -0.5449E-11
    -48.218 -0.1619E-06 -0.3360E-07
    -48.011 -0.1080E-03 -0.2245E-04
    -47.803 -0.6739E-02 -0.1421E-02
    -47.596  0.7279E-02  0.8965E-04
    -47.388  0.3645E+00  0.7573E-01
    -47.181  0.4468E+00  0.1685E+00
    -46.973  0.3116E+00  0.2331E+00
    -46.766  0.4212E-01  0.2419E+00
    -46.558 -0.8666E-02  0.2401E+00
    -46.351 -0.3068E-03  0.2400E+00
    -46.143 -0.9105E-06  0.2400E+00
    -45.936 -0.2865E-09  0.2400E+00
    -45.728 -0.1001E-13  0.2400E+00
    -45.520  0.0000E+00  0.2400E+00
    -45.313  0.0000E+00  0.2400E+00
    -45.105  0.0000E+00  0.2400E+00
    -44.898  0.0000E+00  0.2400E+00
    -44.690  0.0000E+00  0.2400E+00
    -44.483  0.0000E+00  0.2400E+00
    -44.275  0.0000E+00  0.2400E+00
    -44.068  0.0000E+00  0.2400E+00
    -43.860  0.0000E+00  0.2400E+00
    -43.653  0.0000E+00  0.2400E+00
    -43.445  0.0000E+00  0.2400E+00
    -43.238  0.0000E+00  0.2400E+00
    -43.030  0.0000E+00  0.2400E+00
    -42.822  0.0000E+00  0.2400E+00
    -42.615  0.0000E+00  0.2400E+00
    -42.407  0.0000E+00  0.2400E+00
    -42.200  0.0000E+00  0.2400E+00
    -41.992  0.0000E+00  0.2400E+00
    -41.785  0.0000E+00  0.2400E+00
    -41.577  0.0000E+00  0.2400E+00
    -41.370  0.0000E+00  0.2400E+00
    -41.162  0.0000E+00  0.2400E+00
    -40.955  0.0000E+00  0.2400E+00
    -40.747  0.0000E+00  0.2400E+00
    -40.540  0.0000E+00  0.2400E+00
    -40.332  0.0000E+00  0.2400E+00
    -40.124  0.0000E+00  0.2400E+00
    -39.917  0.0000E+00  0.2400E+00
    -39.709  0.0000E+00  0.2400E+00
    -39.502  0.0000E+00  0.2400E+00
    -39.294  0.0000E+00  0.2400E+00
    -39.087  0.0000E+00  0.2400E+00
    -38.879  0.0000E+00  0.2400E+00
    -38.672  0.0000E+00  0.2400E+00
    -38.464  0.0000E+00  0.2400E+00
    -38.257  0.0000E+00  0.2400E+00
    -38.049  0.0000E+00  0.2400E+00
    -37.842  0.0000E+00  0.2400E+00
    -37.634  0.0000E+00  0.2400E+00
    -37.426  0.0000E+00  0.2400E+00
    -37.219  0.0000E+00  0.2400E+00
    -37.011  0.0000E+00  0.2400E+00
    -36.804  0.0000E+00  0.2400E+00
    -36.596  0.0000E+00  0.2400E+00
    -36.389  0.0000E+00  0.2400E+00
    -36.181  0.0000E+00  0.2400E+00
    -35.974  0.0000E+00  0.2400E+00
    -35.766  0.0000E+00  0.2400E+00
    -35.559  0.0000E+00  0.2400E+00
    -35.351  0.0000E+00  0.2400E+00
    -35.144  0.0000E+00  0.2400E+00
    -34.936  0.0000E+00  0.2400E+00
    -34.729  0.0000E+00  0.2400E+00
    -34.521  0.0000E+00  0.2400E+00
    -34.313  0.0000E+00  0.2400E+00
    -34.106  0.0000E+00  0.2400E+00
    -33.898  0.0000E+00  0.2400E+00
    -33.691  0.0000E+00  0.2400E+00
    -33.483  0.0000E+00  0.2400E+00
    -33.276  0.0000E+00  0.2400E+00
    -33.068  0.0000E+00  0.2400E+00
    -32.861  0.0000E+00  0.2400E+00
    -32.653  0.0000E+00  0.2400E+00
    -32.446  0.0000E+00  0.2400E+00
    -32.238  0.0000E+00  0.2400E+00
    -32.031  0.0000E+00  0.2400E+00
    -31.823  0.0000E+00  0.2400E+00
    -31.615  0.0000E+00  0.2400E+00
    -31.408  0.0000E+00  0.2400E+00
    -31.200  0.0000E+00  0.2400E+00
    -30.993  0.0000E+00  0.2400E+00
    -30.785  0.0000E+00  0.2400E+00
    -30.578  0.0000E+00  0.2400E+00
    -30.370  0.0000E+00  0.2400E+00
    -30.163  0.0000E+00  0.2400E+00
    -29.955  0.0000E+00  0.2400E+00
    -29.748  0.0000E+00  0.2400E+00
    -29.540  0.0000E+00  0.2400E+00
    -29.333  0.0000E+00  0.2400E+00
    -29.125  0.0000E+00  0.2400E+00
    -28.917  0.0000E+00  0.2400E+00
    -28.710  0.0000E+00  0.2400E+00
    -28.502  0.0000E+00  0.2400E+00
    -28.295  0.0000E+00  0.2400E+00
    -28.087  0.0000E+00  0.2400E+00
    -27.880  0.0000E+00  0.2400E+00
    -27.672  0.0000E+00  0.2400E+00
    -27.465  0.0000E+00  0.2400E+00
    -27.257  0.0000E+00  0.2400E+00
    -27.050  0.0000E+00  0.2400E+00
    -26.842  0.0000E+00  0.2400E+00
    -26.635  0.0000E+00  0.2400E+00
    -26.427  0.0000E+00  0.2400E+00
    -26.219  0.0000E+00  0.2400E+00
    -26.012  0.0000E+00  0.2400E+00
    -25.804 -0.1560E-33  0.2400E+00
    -25.597 -0.3176E-26  0.2400E+00
    -25.389 -0.7374E-20  0.2400E+00
    -25.182 -0.1888E-14  0.2400E+00
    -24.974 -0.5597E-10  0.2400E+00
    -24.767 -0.1889E-06  0.2400E+00
    -24.559 -0.7446E-04  0.2400E+00
    -24.352 -0.3325E-02  0.2393E+00
    -24.144  0.2180E-02  0.2397E+00
    -23.937  0.1649E+00  0.2740E+00
    -23.729  0.4104E+00  0.3591E+00
    -23.521  0.8798E+00  0.5417E+00
    -23.314  0.8525E+00  0.7187E+00
    -23.106  0.7852E+00  0.8816E+00
    -22.899  0.2978E+00  0.9435E+00
    -22.691  0.7162E-01  0.9583E+00
    -22.484  0.1047E-01  0.9605E+00
    -22.276 -0.2227E-02  0.9600E+00
    -22.069 -0.1248E-03  0.9600E+00
    -21.861 -0.5665E-06  0.9600E+00
    -21.654 -0.2658E-09  0.9600E+00
    -21.446 -0.1355E-13  0.9600E+00
    -21.239  0.0000E+00  0.9600E+00
    -21.031  0.0000E+00  0.9600E+00
    -20.823  0.0000E+00  0.9600E+00
    -20.616  0.0000E+00  0.9600E+00
    -20.408  0.0000E+00  0.9600E+00
    -20.201  0.0000E+00  0.9600E+00
    -19.993  0.0000E+00  0.9600E+00
    -19.786  0.0000E+00  0.9600E+00
    -19.578  0.0000E+00  0.9600E+00
    -19.371  0.0000E+00  0.9600E+00
    -19.163  0.0000E+00  0.9600E+00
    -18.956  0.0000E+00  0.9600E+00
    -18.748  0.0000E+00  0.9600E+00
    -18.541  0.0000E+00  0.9600E+00
    -18.333  0.0000E+00  0.9600E+00
    -18.125  0.0000E+00  0.9600E+00
    -17.918  0.0000E+00  0.9600E+00
    -17.710  0.0000E+00  0.9600E+00
    -17.503  0.0000E+00  0.9600E+00
    -17.295  0.0000E+00  0.9600E+00
    -17.088  0.0000E+00  0.9600E+00
    -16.880  0.0000E+00  0.9600E+00
    -16.673  0.0000E+00  0.9600E+00
    -16.465  0.0000E+00  0.9600E+00
    -16.258  0.0000E+00  0.9600E+00
    -16.050  0.0000E+00  0.9600E+00
    -15.843  0.0000E+00  0.9600E+00
    -15.635  0.0000E+00  0.9600E+00
    -15.427  0.0000E+00  0.9600E+00
    -15.220  0.0000E+00  0.9600E+00
    -15.012  0.0000E+00  0.9600E+00
    -14.805  0.0000E+00  0.9600E+00
    -14.597  0.0000E+00  0.9600E+00
    -14.390  0.0000E+00  0.9600E+00
    -14.182  0.0000E+00  0.9600E+00
    -13.975  0.0000E+00  0.9600E+00
    -13.767  0.0000E+00  0.9600E+00
    -13.560  0.0000E+00  0.9600E+00
    -13.352  0.0000E+00  0.9600E+00
    -13.145  0.0000E+00  0.9600E+00
    -12.937  0.0000E+00  0.9600E+00
    -12.729  0.0000E+00  0.9600E+00
    -12.522  0.0000E+00  0.9600E+00
    -12.314  0.0000E+00  0.9600E+00
    -12.107  0.0000E+00  0.9600E+00
    -11.899  0.0000E+00  0.9600E+00
    -11.692  0.0000E+00  0.9600E+00
    -11.484  0.0000E+00  0.9600E+00
    -11.277  0.0000E+00  0.9600E+00
    -11.069  0.0000E+00  0.9600E+00
    -10.862  0.0000E+00  0.9600E+00
    -10.654  0.0000E+00  0.9600E+00
    -10.447  0.0000E+00  0.9600E+00
    -10.239  0.0000E+00  0.9600E+00
    -10.031  0.0000E+00  0.9600E+00
     -9.824  0.0000E+00  0.9600E+00
     -9.616  0.0000E+00  0.9600E+00
     -9.409  0.0000E+00  0.9600E+00
     -9.201  0.0000E+00  0.9600E+00
     -8.994  0.0000E+00  0.9600E+00
     -8.786  0.0000E+00  0.9600E+00
     -8.579  0.0000E+00  0.9600E+00
     -8.371  0.0000E+00  0.9600E+00
     -8.164  0.0000E+00  0.9600E+00
     -7.956  0.0000E+00  0.9600E+00
     -7.749  0.0000E+00  0.9600E+00
     -7.541  0.0000E+00  0.9600E+00
     -7.333  0.0000E+00  0.9600E+00
     -7.126  0.0000E+00  0.9600E+00
     -6.918  0.0000E+00  0.9600E+00
     -6.711  0.0000E+00  0.9600E+00
     -6.503  0.0000E+00  0.9600E+00
     -6.296  0.0000E+00  0.9600E+00
     -6.088  0.0000E+00  0.9600E+00
     -5.881  0.0000E+00  0.9600E+00
     -5.673  0.0000E+00  0.9600E+00
     -5.466  0.0000E+00  0.9600E+00
     -5.258  0.0000E+00  0.9600E+00
     -5.051  0.0000E+00  0.9600E+00
     -4.843  0.0000E+00  0.9600E+00
     -4.636  0.0000E+00  0.9600E+00
     -4.428  0.0000E+00  0.9600E+00
     -4.220  0.0000E+00  0.9600E+00
     -4.013  0.0000E+00  0.9600E+00
     -3.805  0.0000E+00  0.9600E+00
     -3.598  0.0000E+00  0.9600E+00
     -3.390  0.0000E+00  0.9600E+00
     -3.183  0.0000E+00  0.9600E+00
     -2.975  0.0000E+00  0.9600E+00
     -2.768  0.0000E+00  0.9600E+00
     -2.560  0.0000E+00  0.9600E+00
     -2.353 -0.5557E-34  0.9600E+00
     -2.145 -0.8746E-27  0.9600E+00
     -1.938 -0.1580E-20  0.9600E+00
     -1.730 -0.3171E-15  0.9600E+00
     -1.522 -0.7445E-11  0.9600E+00
     -1.315 -0.1987E-07  0.9600E+00
     -1.107 -0.5914E-05  0.9600E+00
     -0.900 -0.1741E-03  0.9600E+00
     -0.692  0.3555E-03  0.9600E+00
     -0.485  0.7980E-02  0.9617E+00
     -0.277  0.2148E-01  0.9662E+00
     -0.070  0.3383E-01  0.9732E+00
      0.138  0.3382E-01  0.9802E+00
      0.345  0.2585E-01  0.9856E+00
      0.553  0.5375E-01  0.9967E+00
      0.760  0.6945E-01  0.1011E+01
      0.968  0.5757E-01  0.1023E+01
      1.176  0.5548E-01  0.1035E+01
      1.383  0.8675E-01  0.1053E+01
      1.591  0.7937E-01  0.1069E+01
      1.798  0.8696E-01  0.1087E+01
      2.006  0.1362E+00  0.1115E+01
      2.213  0.1860E+00  0.1154E+01
      2.421  0.2715E+00  0.1210E+01
      2.628  0.3630E+00  0.1286E+01
      2.836  0.4009E+00  0.1369E+01
      3.043  0.4952E+00  0.1472E+01
      3.251  0.5593E+00  0.1588E+01
      3.458  0.5665E+00  0.1705E+01
      3.666  0.5936E+00  0.1828E+01
      3.874  0.5994E+00  0.1953E+01
      4.081  0.5823E+00  0.2074E+01
      4.289  0.5106E+00  0.2180E+01
      4.496  0.5028E+00  0.2284E+01
      4.704  0.6529E+00  0.2420E+01
      4.911  0.7738E+00  0.2580E+01
      5.119  0.7942E+00  0.2745E+01
      5.326  0.7520E+00  0.2901E+01
      5.534  0.7503E+00  0.3057E+01
      5.741  0.7582E+00  0.3214E+01
      5.949  0.7599E+00  0.3372E+01
      6.156  0.7738E+00  0.3532E+01
      6.364  0.7916E+00  0.3697E+01
      6.572  0.7197E+00  0.3846E+01
      6.779  0.6371E+00  0.3978E+01
      6.987  0.5690E+00  0.4096E+01
      7.194  0.4666E+00  0.4193E+01
      7.402  0.3517E+00  0.4266E+01
      7.609  0.3061E+00  0.4330E+01
      7.817  0.3247E+00  0.4397E+01
      8.024  0.3748E+00  0.4475E+01
      8.232  0.4414E+00  0.4567E+01
      8.439  0.4489E+00  0.4660E+01
      8.647  0.3525E+00  0.4733E+01
      8.854  0.2165E+00  0.4778E+01
      9.062  0.9331E-01  0.4797E+01
      9.270  0.1564E-01  0.4800E+01
      9.477 -0.1744E-02  0.4800E+01
      9.685 -0.2548E-03  0.4800E+01
      9.892 -0.2955E-05  0.4800E+01
     10.100 -0.3861E-08  0.4800E+01
     10.307 -0.5803E-12  0.4800E+01
     10.515 -0.9586E-17  0.4800E+01
     10.722  0.0000E+00  0.4800E+01
     10.930  0.0000E+00  0.4800E+01
     11.137  0.0000E+00  0.4800E+01
     11.345  0.0000E+00  0.4800E+01
     11.552  0.0000E+00  0.4800E+01
     11.760  0.0000E+00  0.4800E+01
     11.968  0.0000E+00  0.4800E+01
