   29   29   50    1
  0.1679057E+02  0.5525242E-09  0.8287863E-09  0.1139058E-08  0.5000000E-15
  1.000000000000000E-004
  CAR 
 SQS with 1 vacancy for VFE and VRV      
    198     63    120
 
  0.0000000E+00  0.0000000E+00  0.0000000E+00  0.8000000E-02
    1      -47.463785   1.000000
    2      -47.429769   1.000000
    3      -47.382585   1.000000
    4      -47.254002   1.000000
    5      -47.126780   1.000000
    6      -47.040193   1.000000
    7      -24.066876   1.000000
    8      -23.944330   1.000000
    9      -23.773476   1.000000
   10      -23.703374   1.000000
   11      -23.641289   1.000000
   12      -23.610415   1.000000
   13      -23.581891   1.000000
   14      -23.536333   1.000000
   15      -23.492553   1.000000
   16      -23.421444   1.000000
   17      -23.388117   1.000000
   18      -23.317928   1.000000
   19      -23.256804   1.000000
   20      -23.229209   1.000000
   21      -23.192529   1.000000
   22      -23.144162   1.000000
   23      -23.025974   1.000000
   24      -22.731798   1.000000
   25       -0.640348   1.000000
   26        0.725800   1.000000
   27        1.078696   1.000000
   28        1.980166   1.000000
   29        2.008518   1.000000
   30        2.069286   1.000000
   31        2.202701   1.000000
   32        2.325359   1.000000
   33        2.487378   1.000000
   34        2.513705   1.000000
   35        2.580333   1.000000
   36        2.608143   1.000000
   37        2.788520   1.000000
   38        2.842509   1.000000
   39        2.932658   1.000000
   40        2.979972   1.000000
   41        3.101902   1.000000
   42        3.227628   1.000000
   43        3.290616   1.000000
   44        3.313640   1.000000
   45        3.378641   1.000000
   46        3.443593   1.000000
   47        3.531600   1.000000
   48        3.590724   1.000000
   49        3.649005   1.000000
   50        3.722279   1.000000
   51        3.853113   1.000000
   52        3.880211   1.000000
   53        3.922723   1.000000
   54        3.989845   1.000000
   55        4.124620   1.000000
   56        4.181025   1.000000
   57        4.298129   1.000000
   58        4.383307   1.000000
   59        4.489134   1.000000
   60        4.517877   1.000000
   61        4.574562   1.000000
   62        4.609819   1.000000
   63        4.673736   1.000000
   64        4.709239   1.000000
   65        4.773231   1.000000
   66        4.836248   1.000000
   67        4.942535   1.000000
   68        4.996563   1.000000
   69        5.034078   1.000000
   70        5.083907   1.000000
   71        5.152003   1.000000
   72        5.170052   1.000000
   73        5.231496   1.000000
   74        5.311381   1.000000
   75        5.409270   1.000000
   76        5.476142   1.000000
   77        5.505938   1.000000
   78        5.533249   1.000000
   79        5.651731   1.000000
   80        5.740716   1.000000
   81        5.757964   1.000000
   82        5.828082   1.000000
   83        5.897987   1.000000
   84        6.009665   1.000001
   85        6.027501   1.000002
   86        6.130749   1.000056
   87        6.159666   1.000126
   88        6.216101   1.000540
   89        6.274227   1.002004
   90        6.357154   1.009124
   91        6.395820   1.015810
   92        6.444396   1.026653
   93        6.524827   1.033517
   94        6.586156   0.993390
   95        6.786618   0.343231
   96        6.799537   0.292901
   97        6.870953   0.075281
   98        6.948826  -0.025125
   99        7.036359  -0.030319
  100        7.040983  -0.029360
  101        7.055340  -0.026180
  102        7.170818  -0.005515
  103        7.280771  -0.000551
  104        7.409261  -0.000016
  105        7.662656  -0.000000
  106        7.717014  -0.000000
  107        7.783884  -0.000000
  108        7.880132  -0.000000
  109        8.001971  -0.000000
  110        8.302010  -0.000000
  111        8.335230  -0.000000
  112        8.491448  -0.000000
  113        8.598062  -0.000000
  114        8.673348  -0.000000
  115        8.726007  -0.000000
  116        8.840187  -0.000000
  117        8.909177  -0.000000
  118        8.969739  -0.000000
  119        8.994722  -0.000000
  120        9.064848  -0.000000
 
  0.2000000E+00 -0.1387779E-16  0.0000000E+00  0.1600000E-01
    1      -47.463486   1.000000
    2      -47.429371   1.000000
    3      -47.376102   1.000000
    4      -47.253294   1.000000
    5      -47.126670   1.000000
    6      -47.047523   1.000000
    7      -23.973364   1.000000
    8      -23.929796   1.000000
    9      -23.768813   1.000000
   10      -23.699377   1.000000
   11      -23.641716   1.000000
   12      -23.613958   1.000000
   13      -23.583881   1.000000
   14      -23.530015   1.000000
   15      -23.493759   1.000000
   16      -23.430173   1.000000
   17      -23.388647   1.000000
   18      -23.320557   1.000000
   19      -23.258769   1.000000
   20      -23.234820   1.000000
   21      -23.199260   1.000000
   22      -23.150065   1.000000
   23      -23.026852   1.000000
   24      -22.858895   1.000000
   25       -0.320332   1.000000
   26        0.996395   1.000000
   27        1.353577   1.000000
   28        2.026631   1.000000
   29        2.252164   1.000000
   30        2.307553   1.000000
   31        2.393068   1.000000
   32        2.511648   1.000000
   33        2.594855   1.000000
   34        2.700014   1.000000
   35        2.774755   1.000000
   36        2.853628   1.000000
   37        2.916787   1.000000
   38        3.046339   1.000000
   39        3.074626   1.000000
   40        3.138014   1.000000
   41        3.217115   1.000000
   42        3.278868   1.000000
   43        3.355401   1.000000
   44        3.414385   1.000000
   45        3.512411   1.000000
   46        3.550292   1.000000
   47        3.668319   1.000000
   48        3.737874   1.000000
   49        3.781587   1.000000
   50        3.853390   1.000000
   51        3.911097   1.000000
   52        3.977817   1.000000
   53        4.049707   1.000000
   54        4.071445   1.000000
   55        4.224939   1.000000
   56        4.312998   1.000000
   57        4.398016   1.000000
   58        4.439692   1.000000
   59        4.481883   1.000000
   60        4.599137   1.000000
   61        4.668750   1.000000
   62        4.708431   1.000000
   63        4.798485   1.000000
   64        4.819237   1.000000
   65        4.868316   1.000000
   66        4.951378   1.000000
   67        5.002115   1.000000
   68        5.044576   1.000000
   69        5.118074   1.000000
   70        5.189276   1.000000
   71        5.199568   1.000000
   72        5.236898   1.000000
   73        5.288610   1.000000
   74        5.389884   1.000000
   75        5.401417   1.000000
   76        5.431118   1.000000
   77        5.466364   1.000000
   78        5.547101   1.000000
   79        5.603741   1.000000
   80        5.704294   1.000000
   81        5.738303   1.000000
   82        5.819734   1.000000
   83        5.856778   1.000000
   84        5.909506   1.000000
   85        5.953482   1.000000
   86        6.068065   1.000008
   87        6.134201   1.000062
   88        6.197842   1.000344
   89        6.249051   1.001164
   90        6.273659   1.001980
   91        6.321339   1.005001
   92        6.329297   1.005758
   93        6.412288   1.019307
   94        6.503070   1.035455
   95        6.561759   1.017053
   96        6.571603   1.008923
   97        6.716300   0.635651
   98        6.811000   0.250500
   99        6.822531   0.210382
  100        6.866415   0.085480
  101        6.980976  -0.034770
  102        7.033758  -0.030837
  103        7.100069  -0.016171
  104        7.200465  -0.003184
  105        7.264364  -0.000813
  106        7.372029  -0.000048
  107        7.483872  -0.000001
  108        7.629111  -0.000000
  109        7.782012  -0.000000
  110        7.837559  -0.000000
  111        7.964013  -0.000000
  112        8.049491  -0.000000
  113        8.145454  -0.000000
  114        8.207045  -0.000000
  115        8.294588  -0.000000
  116        8.360087  -0.000000
  117        8.458126  -0.000000
  118        8.513069  -0.000000
  119        8.662677  -0.000000
  120        8.692806  -0.000000
 
  0.4000000E+00 -0.2775558E-16  0.0000000E+00  0.1600000E-01
    1      -47.463012   1.000000
    2      -47.428749   1.000000
    3      -47.364971   1.000000
    4      -47.252062   1.000000
    5      -47.126491   1.000000
    6      -47.060082   1.000000
    7      -23.951681   1.000000
    8      -23.772697   1.000000
    9      -23.722897   1.000000
   10      -23.643535   1.000000
   11      -23.636337   1.000000
   12      -23.618812   1.000000
   13      -23.585461   1.000000
   14      -23.519684   1.000000
   15      -23.494261   1.000000
   16      -23.443691   1.000000
   17      -23.389559   1.000000
   18      -23.324762   1.000000
   19      -23.265967   1.000000
   20      -23.244438   1.000000
   21      -23.216992   1.000000
   22      -23.167522   1.000000
   23      -23.150372   1.000000
   24      -23.025354   1.000000
   25        0.503207   1.000000
   26        1.477591   1.000000
   27        1.947629   1.000000
   28        2.105631   1.000000
   29        2.318778   1.000000
   30        2.513254   1.000000
   31        2.618658   1.000000
   32        2.775075   1.000000
   33        2.897348   1.000000
   34        2.986516   1.000000
   35        3.090855   1.000000
   36        3.186724   1.000000
   37        3.197244   1.000000
   38        3.280168   1.000000
   39        3.375113   1.000000
   40        3.432540   1.000000
   41        3.475611   1.000000
   42        3.551250   1.000000
   43        3.610522   1.000000
   44        3.642484   1.000000
   45        3.705094   1.000000
   46        3.812539   1.000000
   47        3.883010   1.000000
   48        3.931905   1.000000
   49        4.004778   1.000000
   50        4.093414   1.000000
   51        4.188378   1.000000
   52        4.241645   1.000000
   53        4.299434   1.000000
   54        4.348650   1.000000
   55        4.398534   1.000000
   56        4.479684   1.000000
   57        4.576520   1.000000
   58        4.596815   1.000000
   59        4.621934   1.000000
   60        4.684833   1.000000
   61        4.709003   1.000000
   62        4.781214   1.000000
   63        4.828491   1.000000
   64        4.872364   1.000000
   65        4.925952   1.000000
   66        4.997818   1.000000
   67        5.031789   1.000000
   68        5.069849   1.000000
   69        5.152908   1.000000
   70        5.209607   1.000000
   71        5.240231   1.000000
   72        5.284732   1.000000
   73        5.337838   1.000000
   74        5.410934   1.000000
   75        5.453792   1.000000
   76        5.501207   1.000000
   77        5.555026   1.000000
   78        5.574273   1.000000
   79        5.627255   1.000000
   80        5.678997   1.000000
   81        5.718505   1.000000
   82        5.757507   1.000000
   83        5.847831   1.000000
   84        5.879617   1.000000
   85        5.908180   1.000000
   86        5.983531   1.000000
   87        6.015625   1.000001
   88        6.093925   1.000019
   89        6.131402   1.000057
   90        6.181322   1.000225
   91        6.253914   1.001296
   92        6.287610   1.002634
   93        6.343213   1.007293
   94        6.362250   1.009870
   95        6.454816   1.028963
   96        6.478677   1.033408
   97        6.532500   1.031658
   98        6.604168   0.967749
   99        6.650416   0.865713
  100        6.704260   0.683502
  101        6.739620   0.538929
  102        6.778908   0.374315
  103        6.852855   0.119052
  104        6.906739   0.012677
  105        6.972638  -0.033478
  106        7.024283  -0.032571
  107        7.099660  -0.016254
  108        7.148424  -0.008047
  109        7.279828  -0.000564
  110        7.444151  -0.000005
  111        7.544641  -0.000000
  112        7.599969  -0.000000
  113        7.710122  -0.000000
  114        7.794182  -0.000000
  115        7.852989  -0.000000
  116        7.895086  -0.000000
  117        8.024016  -0.000000
  118        8.212666  -0.000000
  119        8.276634  -0.000000
  120        8.403106  -0.000000
 
  0.0000000E+00  0.2000000E+00  0.1387779E-16  0.1600000E-01
    1      -47.463673   1.000000
    2      -47.429792   1.000000
    3      -47.382580   1.000000
    4      -47.253998   1.000000
    5      -47.126871   1.000000
    6      -47.040190   1.000000
    7      -24.066882   1.000000
    8      -23.943242   1.000000
    9      -23.769852   1.000000
   10      -23.703098   1.000000
   11      -23.641049   1.000000
   12      -23.610492   1.000000
   13      -23.581890   1.000000
   14      -23.536488   1.000000
   15      -23.492561   1.000000
   16      -23.421500   1.000000
   17      -23.388173   1.000000
   18      -23.317884   1.000000
   19      -23.256819   1.000000
   20      -23.229289   1.000000
   21      -23.192589   1.000000
   22      -23.149635   1.000000
   23      -23.026563   1.000000
   24      -22.731804   1.000000
   25       -0.502296   1.000000
   26        0.785807   1.000000
   27        1.152205   1.000000
   28        1.526736   1.000000
   29        1.973322   1.000000
   30        2.138533   1.000000
   31        2.276668   1.000000
   32        2.397132   1.000000
   33        2.470867   1.000000
   34        2.558219   1.000000
   35        2.578512   1.000000
   36        2.678901   1.000000
   37        2.758652   1.000000
   38        2.805443   1.000000
   39        2.870608   1.000000
   40        2.946249   1.000000
   41        2.993287   1.000000
   42        3.183054   1.000000
   43        3.234558   1.000000
   44        3.308749   1.000000
   45        3.424112   1.000000
   46        3.538223   1.000000
   47        3.602164   1.000000
   48        3.642734   1.000000
   49        3.736160   1.000000
   50        3.764543   1.000000
   51        3.828177   1.000000
   52        3.872950   1.000000
   53        3.923738   1.000000
   54        4.032432   1.000000
   55        4.127813   1.000000
   56        4.160544   1.000000
   57        4.295266   1.000000
   58        4.425861   1.000000
   59        4.474270   1.000000
   60        4.547138   1.000000
   61        4.643253   1.000000
   62        4.699915   1.000000
   63        4.749331   1.000000
   64        4.794419   1.000000
   65        4.882429   1.000000
   66        4.928983   1.000000
   67        4.960246   1.000000
   68        4.991183   1.000000
   69        5.003806   1.000000
   70        5.055394   1.000000
   71        5.174057   1.000000
   72        5.211954   1.000000
   73        5.308752   1.000000
   74        5.344972   1.000000
   75        5.448767   1.000000
   76        5.474895   1.000000
   77        5.497299   1.000000
   78        5.638754   1.000000
   79        5.671360   1.000000
   80        5.709312   1.000000
   81        5.776780   1.000000
   82        5.830648   1.000000
   83        5.909839   1.000000
   84        5.939946   1.000000
   85        5.972602   1.000000
   86        6.065359   1.000007
   87        6.156664   1.000116
   88        6.194047   1.000313
   89        6.207864   1.000442
   90        6.249644   1.001179
   91        6.286983   1.002602
   92        6.363160   1.010007
   93        6.402440   1.017177
   94        6.506563   1.035430
   95        6.602427   0.970556
   96        6.725515   0.597916
   97        6.835378   0.169048
   98        6.883743   0.049324
   99        6.988476  -0.035346
  100        7.078056  -0.020949
  101        7.155733  -0.007140
  102        7.273215  -0.000660
  103        7.363123  -0.000062
  104        7.455464  -0.000003
  105        7.576498  -0.000000
  106        7.695684  -0.000000
  107        7.768753  -0.000000
  108        7.896955  -0.000000
  109        8.042136  -0.000000
  110        8.079332  -0.000000
  111        8.121857  -0.000000
  112        8.227613  -0.000000
  113        8.335002  -0.000000
  114        8.472426  -0.000000
  115        8.586354  -0.000000
  116        8.717111  -0.000000
  117        8.772227  -0.000000
  118        8.816120  -0.000000
  119        8.853061  -0.000000
  120        8.919988  -0.000000
 
  0.2000000E+00  0.2000000E+00 -0.4857226E-16  0.1600000E-01
    1      -47.463593   1.000000
    2      -47.429349   1.000000
    3      -47.376106   1.000000
    4      -47.253299   1.000000
    5      -47.126581   1.000000
    6      -47.047526   1.000000
    7      -23.973668   1.000000
    8      -23.930546   1.000000
    9      -23.772413   1.000000
   10      -23.699584   1.000000
   11      -23.641917   1.000000
   12      -23.613935   1.000000
   13      -23.583886   1.000000
   14      -23.529899   1.000000
   15      -23.493751   1.000000
   16      -23.430103   1.000000
   17      -23.388593   1.000000
   18      -23.320550   1.000000
   19      -23.258739   1.000000
   20      -23.234750   1.000000
   21      -23.199172   1.000000
   22      -23.144739   1.000000
   23      -23.026308   1.000000
   24      -22.858878   1.000000
   25       -0.314438   1.000000
   26        0.966506   1.000000
   27        1.356624   1.000000
   28        1.922821   1.000000
   29        2.194885   1.000000
   30        2.310968   1.000000
   31        2.370431   1.000000
   32        2.422676   1.000000
   33        2.562587   1.000000
   34        2.703165   1.000000
   35        2.764715   1.000000
   36        2.809042   1.000000
   37        2.880586   1.000000
   38        3.010156   1.000000
   39        3.097955   1.000000
   40        3.140447   1.000000
   41        3.177762   1.000000
   42        3.289672   1.000000
   43        3.368997   1.000000
   44        3.430776   1.000000
   45        3.532438   1.000000
   46        3.611134   1.000000
   47        3.677757   1.000000
   48        3.756346   1.000000
   49        3.785973   1.000000
   50        3.836952   1.000000
   51        3.888617   1.000000
   52        3.948271   1.000000
   53        4.094682   1.000000
   54        4.135389   1.000000
   55        4.214186   1.000000
   56        4.327874   1.000000
   57        4.381127   1.000000
   58        4.468940   1.000000
   59        4.524388   1.000000
   60        4.594124   1.000000
   61        4.621904   1.000000
   62        4.714117   1.000000
   63        4.747738   1.000000
   64        4.818609   1.000000
   65        4.856052   1.000000
   66        4.907087   1.000000
   67        4.948845   1.000000
   68        5.016851   1.000000
   69        5.063732   1.000000
   70        5.135449   1.000000
   71        5.174823   1.000000
   72        5.223461   1.000000
   73        5.278266   1.000000
   74        5.298056   1.000000
   75        5.367335   1.000000
   76        5.508672   1.000000
   77        5.520187   1.000000
   78        5.580382   1.000000
   79        5.631052   1.000000
   80        5.694925   1.000000
   81        5.735637   1.000000
   82        5.781994   1.000000
   83        5.822218   1.000000
   84        5.885541   1.000000
   85        5.968558   1.000000
   86        6.025811   1.000002
   87        6.118315   1.000039
   88        6.181921   1.000229
   89        6.214024   1.000514
   90        6.270629   1.001858
   91        6.303100   1.003567
   92        6.380651   1.012909
   93        6.502712   1.035453
   94        6.518866   1.034502
   95        6.626500   0.925176
   96        6.681287   0.768533
   97        6.764953   0.432027
   98        6.848485   0.130852
   99        6.914534   0.003013
  100        6.924438  -0.007406
  101        7.010388  -0.034511
  102        7.040840  -0.029391
  103        7.110334  -0.014144
  104        7.167685  -0.005826
  105        7.281499  -0.000541
  106        7.358264  -0.000072
  107        7.412500  -0.000014
  108        7.525893  -0.000000
  109        7.791480  -0.000000
  110        7.857286  -0.000000
  111        7.994860  -0.000000
  112        8.142958  -0.000000
  113        8.344319  -0.000000
  114        8.398311  -0.000000
  115        8.589455  -0.000000
  116        8.639379  -0.000000
  117        8.735111  -0.000000
  118        8.809332  -0.000000
  119        8.918940  -0.000000
  120        8.972675  -0.000000
 
  0.4000000E+00  0.2000000E+00 -0.5551115E-16  0.1600000E-01
    1      -47.463188   1.000000
    2      -47.428712   1.000000
    3      -47.364977   1.000000
    4      -47.252071   1.000000
    5      -47.126348   1.000000
    6      -47.060086   1.000000
    7      -23.953172   1.000000
    8      -23.777944   1.000000
    9      -23.724197   1.000000
   10      -23.643930   1.000000
   11      -23.636324   1.000000
   12      -23.618771   1.000000
   13      -23.585457   1.000000
   14      -23.519492   1.000000
   15      -23.494262   1.000000
   16      -23.443570   1.000000
   17      -23.389474   1.000000
   18      -23.324773   1.000000
   19      -23.265950   1.000000
   20      -23.244327   1.000000
   21      -23.216839   1.000000
   22      -23.163637   1.000000
   23      -23.145205   1.000000
   24      -23.024580   1.000000
   25        0.417736   1.000000
   26        1.444545   1.000000
   27        1.814153   1.000000
   28        2.025291   1.000000
   29        2.156897   1.000000
   30        2.377260   1.000000
   31        2.670474   1.000000
   32        2.877864   1.000000
   33        2.939438   1.000000
   34        3.114417   1.000000
   35        3.130115   1.000000
   36        3.197911   1.000000
   37        3.251216   1.000000
   38        3.317979   1.000000
   39        3.405725   1.000000
   40        3.476060   1.000000
   41        3.495349   1.000000
   42        3.554436   1.000000
   43        3.582002   1.000000
   44        3.642751   1.000000
   45        3.702017   1.000000
   46        3.770874   1.000000
   47        3.802201   1.000000
   48        3.918205   1.000000
   49        3.984906   1.000000
   50        4.038688   1.000000
   51        4.117957   1.000000
   52        4.148886   1.000000
   53        4.195276   1.000000
   54        4.250287   1.000000
   55        4.349691   1.000000
   56        4.430799   1.000000
   57        4.497663   1.000000
   58        4.589296   1.000000
   59        4.659606   1.000000
   60        4.687294   1.000000
   61        4.716215   1.000000
   62        4.793833   1.000000
   63        4.861581   1.000000
   64        4.910084   1.000000
   65        4.938037   1.000000
   66        5.012040   1.000000
   67        5.040618   1.000000
   68        5.075870   1.000000
   69        5.122390   1.000000
   70        5.206934   1.000000
   71        5.254347   1.000000
   72        5.302402   1.000000
   73        5.305753   1.000000
   74        5.402542   1.000000
   75        5.450648   1.000000
   76        5.480956   1.000000
   77        5.543551   1.000000
   78        5.588319   1.000000
   79        5.629879   1.000000
   80        5.690750   1.000000
   81        5.748181   1.000000
   82        5.800612   1.000000
   83        5.827625   1.000000
   84        5.932685   1.000000
   85        5.941186   1.000000
   86        5.970512   1.000000
   87        6.036764   1.000003
   88        6.050876   1.000005
   89        6.132445   1.000059
   90        6.169781   1.000166
   91        6.229859   1.000750
   92        6.268903   1.001792
   93        6.302411   1.003521
   94        6.330446   1.005874
   95        6.373890   1.011730
   96        6.412506   1.019355
   97        6.459954   1.030044
   98        6.535164   1.030843
   99        6.557599   1.019959
  100        6.687197   0.747572
  101        6.692097   0.729687
  102        6.754258   0.477046
  103        6.839545   0.156456
  104        6.882874   0.050958
  105        6.976661  -0.034193
  106        7.052251  -0.026883
  107        7.271012  -0.000696
  108        7.347323  -0.000097
  109        7.499657  -0.000001
  110        7.642389  -0.000000
  111        7.717215  -0.000000
  112        7.859826  -0.000000
  113        7.998668  -0.000000
  114        8.030707  -0.000000
  115        8.113336  -0.000000
  116        8.224824  -0.000000
  117        8.266194  -0.000000
  118        8.350416  -0.000000
  119        8.384035  -0.000000
  120        8.454822  -0.000000
 
 -0.4000000E+00  0.2000000E+00 -0.3908332E-16  0.1600000E-01
    1      -47.463009   1.000000
    2      -47.428750   1.000000
    3      -47.364970   1.000000
    4      -47.252062   1.000000
    5      -47.126493   1.000000
    6      -47.060082   1.000000
    7      -23.951664   1.000000
    8      -23.772672   1.000000
    9      -23.722888   1.000000
   10      -23.643517   1.000000
   11      -23.636346   1.000000
   12      -23.618833   1.000000
   13      -23.585465   1.000000
   14      -23.519707   1.000000
   15      -23.494260   1.000000
   16      -23.443689   1.000000
   17      -23.389557   1.000000
   18      -23.324731   1.000000
   19      -23.265959   1.000000
   20      -23.244443   1.000000
   21      -23.216993   1.000000
   22      -23.167535   1.000000
   23      -23.150430   1.000000
   24      -23.025375   1.000000
   25        0.760336   1.000000
   26        1.383733   1.000000
   27        1.734259   1.000000
   28        2.137160   1.000000
   29        2.169748   1.000000
   30        2.459909   1.000000
   31        2.587640   1.000000
   32        2.819175   1.000000
   33        2.913693   1.000000
   34        3.016804   1.000000
   35        3.057036   1.000000
   36        3.119583   1.000000
   37        3.197889   1.000000
   38        3.293388   1.000000
   39        3.313891   1.000000
   40        3.422809   1.000000
   41        3.468973   1.000000
   42        3.550770   1.000000
   43        3.625229   1.000000
   44        3.688026   1.000000
   45        3.758688   1.000000
   46        3.813682   1.000000
   47        3.877241   1.000000
   48        3.963504   1.000000
   49        4.051507   1.000000
   50        4.102130   1.000000
   51        4.195353   1.000000
   52        4.226178   1.000000
   53        4.360666   1.000000
   54        4.399630   1.000000
   55        4.459830   1.000000
   56        4.491032   1.000000
   57        4.523814   1.000000
   58        4.601502   1.000000
   59        4.656937   1.000000
   60        4.696087   1.000000
   61        4.772794   1.000000
   62        4.817297   1.000000
   63        4.847331   1.000000
   64        4.868336   1.000000
   65        4.900102   1.000000
   66        4.962783   1.000000
   67        5.020771   1.000000
   68        5.059072   1.000000
   69        5.074516   1.000000
   70        5.169183   1.000000
   71        5.211448   1.000000
   72        5.263768   1.000000
   73        5.297003   1.000000
   74        5.352294   1.000000
   75        5.421026   1.000000
   76        5.481418   1.000000
   77        5.542567   1.000000
   78        5.641068   1.000000
   79        5.659951   1.000000
   80        5.684851   1.000000
   81        5.752737   1.000000
   82        5.818926   1.000000
   83        5.835194   1.000000
   84        5.872554   1.000000
   85        5.942359   1.000000
   86        5.970642   1.000000
   87        6.036014   1.000003
   88        6.084112   1.000014
   89        6.116951   1.000037
   90        6.165789   1.000149
   91        6.213597   1.000509
   92        6.296296   1.003128
   93        6.313570   1.004342
   94        6.359926   1.009525
   95        6.415006   1.019912
   96        6.452679   1.028501
   97        6.506956   1.035421
   98        6.570305   1.010100
   99        6.641107   0.890567
  100        6.663703   0.826567
  101        6.765327   0.430462
  102        6.807784   0.262157
  103        6.882430   0.051800
  104        6.960442  -0.030150
  105        6.995281  -0.035449
  106        7.049025  -0.027608
  107        7.124089  -0.011676
  108        7.167218  -0.005874
  109        7.287467  -0.000468
  110        7.316034  -0.000227
  111        7.499414  -0.000001
  112        7.662774  -0.000000
  113        7.758822  -0.000000
  114        7.788745  -0.000000
  115        8.007720  -0.000000
  116        8.077648  -0.000000
  117        8.178477  -0.000000
  118        8.244809  -0.000000
  119        8.300441  -0.000000
  120        8.395486  -0.000000
 
 -0.2000000E+00  0.2000000E+00  0.1006140E-15  0.1600000E-01
    1      -47.463305   1.000000
    2      -47.429409   1.000000
    3      -47.376095   1.000000
    4      -47.253286   1.000000
    5      -47.126817   1.000000
    6      -47.047519   1.000000
    7      -23.972898   1.000000
    8      -23.928568   1.000000
    9      -23.762780   1.000000
   10      -23.698955   1.000000
   11      -23.641266   1.000000
   12      -23.614063   1.000000
   13      -23.583876   1.000000
   14      -23.530262   1.000000
   15      -23.493756   1.000000
   16      -23.430276   1.000000
   17      -23.388731   1.000000
   18      -23.320496   1.000000
   19      -23.258785   1.000000
   20      -23.234967   1.000000
   21      -23.199435   1.000000
   22      -23.159123   1.000000
   23      -23.027717   1.000000
   24      -22.858907   1.000000
   25       -0.070474   1.000000
   26        1.034742   1.000000
   27        1.413025   1.000000
   28        1.660494   1.000000
   29        2.100610   1.000000
   30        2.414468   1.000000
   31        2.465944   1.000000
   32        2.631467   1.000000
   33        2.688253   1.000000
   34        2.719292   1.000000
   35        2.754731   1.000000
   36        2.886511   1.000000
   37        2.914525   1.000000
   38        2.970316   1.000000
   39        3.031004   1.000000
   40        3.099748   1.000000
   41        3.167745   1.000000
   42        3.200795   1.000000
   43        3.327425   1.000000
   44        3.401669   1.000000
   45        3.488268   1.000000
   46        3.573222   1.000000
   47        3.637453   1.000000