 running on   32 total cores
 distrk:  each k-point on   32 cores,    1 groups
 distr:  one band on    4 cores,    8 groups
 using from now: INCAR     
 vasp.5.4.4.18Apr17-6-g9f103f2a35 (build Aug 09 2018 16:20:53) complex          
  
 POSCAR found :  5 types and      29 ions
 scaLAPACK will be used

 ----------------------------------------------------------------------------- 
|                                                                             |
|  ADVICE TO THIS USER RUNNING 'VASP/VAMP'   (HEAR YOUR MASTER'S VOICE ...):  |
|                                                                             |
|      You enforced a specific xc-type in the INCAR file,                     |
|      a different type was found on the POTCAR file                          |
|          I HOPE YOU KNOW, WHAT YOU ARE  DOING                               |
|                                                                             |
 ----------------------------------------------------------------------------- 

 LDA part: xc-table for Pade appr. of Perdew
 POSCAR found :  5 types and      29 ions
 POSCAR, INCAR and KPOINTS ok, starting setup
 FFT: planning ...
 WAVECAR not read
 entering main loop
       N       E                     dE             d eps       ncg     rms          rms(c)
DAV:   1     0.215232766244E+04    0.21523E+04   -0.91330E+04 15120   0.175E+03
DAV:   2     0.721686404766E+02   -0.20802E+04   -0.20175E+04 15160   0.519E+02
DAV:   3    -0.301937108359E+03   -0.37411E+03   -0.35547E+03 26264   0.183E+02
DAV:   4    -0.348621579400E+03   -0.46684E+02   -0.43117E+02 23464   0.604E+01
DAV:   5    -0.353672312043E+03   -0.50507E+01   -0.49249E+01 28568   0.215E+01    0.759E+01
DAV:   6    -0.344903332785E+03    0.87690E+01   -0.13226E+02 21008   0.325E+01    0.386E+01
DAV:   7    -0.356882969005E+03   -0.11980E+02   -0.42546E+02 21872   0.781E+01    0.283E+01
DAV:   8    -0.341643095234E+03    0.15240E+02   -0.56158E+01 22136   0.249E+01    0.173E+01
DAV:   9    -0.334860649899E+03    0.67824E+01   -0.18186E+01 21704   0.135E+01    0.121E+01
DAV:  10    -0.332384053766E+03    0.24766E+01   -0.99599E+00 21808   0.914E+00    0.859E+00
DAV:  11    -0.331210522219E+03    0.11735E+01   -0.48217E+00 22416   0.602E+00    0.391E+00
DAV:  12    -0.331183968919E+03    0.26553E-01   -0.18694E+00 23120   0.379E+00    0.318E+00
DAV:  13    -0.331091855389E+03    0.92114E-01   -0.10839E+00 23016   0.299E+00    0.178E+00
DAV:  14    -0.331068738631E+03    0.23117E-01   -0.47569E-01 21840   0.227E+00    0.129E+00
DAV:  15    -0.331051510367E+03    0.17228E-01   -0.22785E-01 22360   0.142E+00    0.701E-01
DAV:  16    -0.331049309755E+03    0.22006E-02   -0.67891E-02 23192   0.729E-01    0.483E-01
DAV:  17    -0.331048724835E+03    0.58492E-03   -0.20842E-02 22080   0.455E-01    0.407E-01
DAV:  18    -0.331047227724E+03    0.14971E-02   -0.21413E-02 20768   0.411E-01    0.214E-01
DAV:  19    -0.331046680011E+03    0.54771E-03   -0.68036E-03 21088   0.253E-01    0.947E-02
DAV:  20    -0.331046540956E+03    0.13905E-03   -0.14594E-03 19272   0.123E-01    0.571E-02
DAV:  21    -0.331046504459E+03    0.36497E-04   -0.35539E-04 13168   0.714E-02
   1 F= -.33104650E+03 E0= -.33104061E+03  d E =-.331047E+03
 curvature:   0.00 expect dE= 0.000E+00 dE for cont linesearch  0.000E+00
 trial: gam= 0.00000 g(F)=  0.670E+00 g(S)=  0.200E+00 ort = 0.000E+00 (trialstep = 0.100E+01)
 search vector abs. value=  0.870E+00
 bond charge predicted
       N       E                     dE             d eps       ncg     rms          rms(c)
DAV:   1    -0.331789320399E+03   -0.74278E+00   -0.10883E+02 15144   0.403E+01    0.911E+00
DAV:   2    -0.332151846246E+03   -0.36253E+00   -0.14029E+01 21952   0.155E+01    0.627E+00
DAV:   3    -0.331876663869E+03    0.27518E+00   -0.77793E+00 22592   0.867E+00    0.530E+00
DAV:   4    -0.331630419291E+03    0.24624E+00   -0.41311E+00 23088   0.666E+00    0.341E+00
DAV:   5    -0.331479487910E+03    0.15093E+00   -0.19637E+00 22304   0.465E+00    0.184E+00
DAV:   6    -0.331421772496E+03    0.57715E-01   -0.51438E-01 25096   0.220E+00    0.107E+00
DAV:   7    -0.331426851438E+03   -0.50789E-02   -0.22585E-01 24512   0.136E+00    0.958E-01
DAV:   8    -0.331419109476E+03    0.77420E-02   -0.69196E-02 23960   0.791E-01    0.603E-01
DAV:   9    -0.331420394727E+03   -0.12853E-02   -0.20911E-02 22056   0.442E-01    0.438E-01
DAV:  10    -0.331422975757E+03   -0.25810E-02   -0.22687E-02 22232   0.439E-01    0.367E-01
DAV:  11    -0.331423278706E+03   -0.30295E-03   -0.14038E-02 23408   0.356E-01    0.196E-01
DAV:  12    -0.331423406964E+03   -0.12826E-03   -0.55250E-03 22432   0.225E-01    0.110E-01
DAV:  13    -0.331423483352E+03   -0.76388E-04   -0.22462E-03 20504   0.136E-01    0.694E-02
DAV:  14    -0.331423461271E+03    0.22081E-04   -0.65112E-04 16392   0.853E-02
   2 F= -.33142346E+03 E0= -.33141925E+03  d E =-.376957E+00
 trial-energy change:   -0.376957  1 .order   -0.368284   -0.869540    0.132972
 step:   0.8731(harm=  0.8674)  dis= 0.03712  next Energy=  -331.431880 (dE=-0.385E+00)
 bond charge predicted
       N       E                     dE             d eps       ncg     rms          rms(c)
DAV:   1    -0.331437523145E+03   -0.14040E-01   -0.17683E+00 15256   0.516E+00    0.120E+00
DAV:   2    -0.331442971823E+03   -0.54487E-02   -0.21374E-01 22672   0.189E+00    0.842E-01
DAV:   3    -0.331442201153E+03    0.77067E-03   -0.15626E-01 22736   0.126E+00    0.734E-01
DAV:   4    -0.331435753511E+03    0.64476E-02   -0.65035E-02 22592   0.841E-01    0.409E-01
DAV:   5    -0.331432834202E+03    0.29193E-02   -0.27302E-02 22336   0.546E-01    0.208E-01
DAV:   6    -0.331432186321E+03    0.64788E-03   -0.82199E-03 22824   0.280E-01    0.132E-01
DAV:   7    -0.331432212581E+03   -0.26260E-04   -0.32461E-03 20400   0.163E-01    0.110E-01
DAV:   8    -0.331432111232E+03    0.10135E-03   -0.10384E-03 17848   0.101E-01    0.701E-02
DAV:   9    -0.331432116264E+03   -0.50324E-05   -0.30473E-04 12056   0.675E-02
   3 F= -.33143212E+03 E0= -.33142764E+03  d E =-.385612E+00
 curvature:  -0.43 expect dE=-0.379E+00 dE for cont linesearch -0.463E-07
 trial: gam= 1.00640 g(F)=  0.216E+00 g(S)=  0.659E+00 ort =-0.305E-03 (trialstep = 0.483E+00)
 search vector abs. value=  0.175E+01
 bond charge predicted
       N       E                     dE             d eps       ncg     rms          rms(c)
DAV:   1    -0.331623245870E+03   -0.19113E+00   -0.48751E+01 15120   0.246E+01    0.398E+00
DAV:   2    -0.331821121627E+03   -0.19788E+00   -0.42624E+00 21344   0.782E+00    0.286E+00
DAV:   3    -0.331829605269E+03   -0.84836E-02   -0.22210E+00 22616   0.479E+00    0.250E+00
DAV:   4    -0.331732572000E+03    0.97033E-01   -0.57746E-01 22512   0.240E+00    0.130E+00
DAV:   5    -0.331713349439E+03    0.19223E-01   -0.27660E-01 22664   0.168E+00    0.892E-01
DAV:   6    -0.331706187687E+03    0.71618E-02   -0.13467E-01 22928   0.116E+00    0.600E-01
DAV:   7    -0.331703386243E+03    0.28014E-02   -0.59021E-02 24944   0.764E-01    0.416E-01
DAV:   8    -0.331701904614E+03    0.14816E-02   -0.21612E-02 23160   0.418E-01    0.290E-01
DAV:   9    -0.331701888436E+03    0.16179E-04   -0.68854E-03 20392   0.224E-01    0.229E-01
DAV:  10    -0.331701981346E+03   -0.92910E-04   -0.28431E-03 20048   0.167E-01    0.159E-01
DAV:  11    -0.331702181767E+03   -0.20042E-03   -0.17537E-03 21048   0.148E-01    0.849E-02
DAV:  12    -0.331702254888E+03   -0.73121E-04   -0.16686E-03 21448   0.131E-01    0.683E-02
DAV:  13    -0.331702190602E+03    0.64286E-04   -0.68152E-04 16640   0.859E-02
   4 F= -.33170219E+03 E0= -.33169928E+03  d E =-.270074E+00
 trial-energy change:   -0.270074  1 .order   -0.271574   -0.422310   -0.120837
 step:   0.6850(harm=  0.6765)  dis= 0.04287  next Energy=  -331.727368 (dE=-0.295E+00)
 bond charge predicted
       N       E                     dE             d eps       ncg     rms          rms(c)
DAV:   1    -0.331714930509E+03   -0.12676E-01   -0.85152E+00 15120   0.102E+01    0.162E+00
DAV:   2    -0.331748629502E+03   -0.33699E-01   -0.74363E-01 21552   0.327E+00    0.117E+00
DAV:   3    -0.331747717243E+03    0.91226E-03   -0.36189E-01 22168   0.190E+00    0.102E+00
DAV:   4    -0.331732582378E+03    0.15135E-01   -0.10811E-01 21872   0.102E+00    0.529E-01
DAV:   5    -0.331729697805E+03    0.28846E-02   -0.47147E-02 22632   0.692E-01    0.367E-01
DAV:   6    -0.331728404204E+03    0.12936E-02   -0.21626E-02 23296   0.469E-01    0.248E-01
DAV:   7    -0.331727860750E+03    0.54345E-03   -0.98932E-03 24400   0.311E-01    0.168E-01
DAV:   8    -0.331727645641E+03    0.21511E-03   -0.35005E-03 20584   0.168E-01    0.118E-01
DAV:   9    -0.331727637647E+03    0.79946E-05   -0.10965E-03 18328   0.949E-02    0.924E-02
DAV:  10    -0.331727653936E+03   -0.16289E-04   -0.44079E-04 13816   0.775E-02
   5 F= -.33172765E+03 E0= -.33172543E+03  d E =-.295538E+00
 curvature:  -0.68 expect dE=-0.663E-01 dE for cont linesearch -0.175E-04
 trial: gam= 0.04122 g(F)=  0.961E-01 g(S)=  0.178E-02 ort = 0.672E-02 (trialstep = 0.523E+00)
 search vector abs. value=  0.101E+00
 bond charge predicted
       N       E                     dE             d eps       ncg     rms          rms(c)
DAV:   1    -0.331760133908E+03   -0.32496E-01   -0.31348E+00 15592   0.602E+00    0.686E-01
DAV:   2    -0.331780860168E+03   -0.20726E-01   -0.24366E-01 22864   0.196E+00    0.780E-01
DAV:   3    -0.331773793212E+03    0.70670E-02   -0.89363E-02 22152   0.955E-01    0.426E-01
DAV:   4    -0.331772577678E+03    0.12155E-02   -0.18987E-02 22320   0.476E-01    0.299E-01
DAV:   5    -0.331771755094E+03    0.82258E-03   -0.95493E-03 22160   0.311E-01    0.181E-01
DAV:   6    -0.331772071488E+03   -0.31639E-03   -0.58728E-03 22776   0.251E-01    0.195E-01
DAV:   7    -0.331771417737E+03    0.65375E-03   -0.42413E-03 22256   0.198E-01    0.660E-02
DAV:   8    -0.331771345753E+03    0.71984E-04   -0.40821E-04 13152   0.769E-02
   6 F= -.33177135E+03 E0= -.33176937E+03  d E =-.436918E-01
 trial-energy change:   -0.043692  1 .order   -0.043758   -0.051390   -0.036127
 step:   1.7621(harm=  1.7621)  dis= 0.03467  next Energy=  -331.814170 (dE=-0.865E-01)
 bond charge predicted
       N       E                     dE             d eps       ncg     rms          rms(c)
DAV:   1    -0.331751543185E+03    0.19875E-01   -0.17577E+01 15432   0.143E+01    0.162E+00
DAV:   2    -0.331866693882E+03   -0.11515E+00   -0.13447E+00 22872   0.457E+00    0.183E+00
DAV:   3    -0.331831722530E+03    0.34971E-01   -0.50383E-01 23024   0.230E+00    0.103E+00
DAV:   4    -0.331823997822E+03    0.77247E-02   -0.10203E-01 22664   0.111E+00    0.701E-01
DAV:   5    -0.331819764341E+03    0.42335E-02   -0.52483E-02 22600   0.727E-01    0.442E-01
DAV:   6    -0.331821544999E+03   -0.17807E-02   -0.35206E-02 23448   0.608E-01    0.475E-01
DAV:   7    -0.331817560709E+03    0.39843E-02   -0.24799E-02 24544   0.476E-01    0.148E-01
DAV:   8    -0.331817266120E+03    0.29459E-03   -0.28313E-03 22728   0.176E-01    0.101E-01
DAV:   9    -0.331817267561E+03   -0.14413E-05   -0.93572E-04 18200   0.924E-02
   7 F= -.33181727E+03 E0= -.33181611E+03  d E =-.896136E-01
 curvature:  -0.91 expect dE=-0.103E+00 dE for cont linesearch -0.230E-03
 trial: gam= 1.11088 g(F)=  0.283E-01 g(S)=  0.853E-01 ort = 0.507E-02 (trialstep = 0.313E+00)
 search vector abs. value=  0.250E+00
 bond charge predicted
       N       E                     dE             d eps       ncg     rms          rms(c)
DAV:   1    -0.331858860974E+03   -0.41595E-01   -0.24417E+00 15208   0.647E+00    0.157E+00
DAV:   2    -0.331859534986E+03   -0.67401E-03   -0.32606E-01 22400   0.238E+00    0.938E-01
DAV:   3    -0.331859802013E+03   -0.26703E-03   -0.22382E-01 22432   0.152E+00    0.877E-01
DAV:   4    -0.331848194118E+03    0.11608E-01   -0.95478E-02 22912   0.104E+00    0.439E-01
DAV:   5    -0.331845649778E+03    0.25443E-02   -0.38600E-02 22544   0.632E-01    0.310E-01
DAV:   6    -0.331844524761E+03    0.11250E-02   -0.16211E-02 23872   0.363E-01    0.190E-01
DAV:   7    -0.331844455560E+03    0.69201E-04   -0.66408E-03 20488   0.229E-01    0.145E-01
DAV:   8    -0.331844301180E+03    0.15438E-03   -0.20595E-03 19792   0.133E-01    0.877E-02
DAV:   9    -0.331844318263E+03   -0.17083E-04   -0.50130E-04 13768   0.825E-02
   8 F= -.33184432E+03 E0= -.33184339E+03  d E =-.270507E-01
 trial-energy change:   -0.027051  1 .order   -0.027628   -0.037301   -0.017954
 step:   0.9443(harm=  0.6032)  dis= 0.03562  next Energy=  -331.857692 (dE=-0.404E-01)
 bond charge predicted
       N       E                     dE             d eps       ncg     rms          rms(c)
DAV:   1    -0.331888135912E+03   -0.43835E-01   -0.99342E+00 15208   0.131E+01    0.317E+00
DAV:   2    -0.331889035007E+03   -0.89909E-03   -0.13003E+00 22432   0.481E+00    0.181E+00
DAV:   3    -0.331889989091E+03   -0.95408E-03   -0.83568E-01 22464   0.297E+00    0.168E+00
DAV:   4    -0.331846965722E+03    0.43023E-01   -0.37922E-01 23064   0.211E+00    0.856E-01
DAV:   5    -0.331837398359E+03    0.95674E-02   -0.15073E-01 22504   0.126E+00    0.598E-01
DAV:   6    -0.331833149704E+03    0.42487E-02   -0.56932E-02 24784   0.677E-01    0.354E-01
DAV:   7    -0.331833310341E+03   -0.16064E-03   -0.20736E-02 23320   0.409E-01    0.292E-01
DAV:   8    -0.331832894264E+03    0.41608E-03   -0.66976E-03 20296   0.230E-01    0.192E-01
DAV:   9    -0.331833102209E+03   -0.20794E-03   -0.19494E-03 19968   0.145E-01    0.148E-01
DAV:  10    -0.331833492200E+03   -0.38999E-03   -0.23894E-03 20936   0.153E-01    0.123E-01
DAV:  11    -0.331833565168E+03   -0.72968E-04   -0.16607E-03 20680   0.130E-01    0.590E-02
DAV:  12    -0.331833615491E+03   -0.50323E-04   -0.68282E-04 17160   0.839E-02
   9 F= -.33183362E+03 E0= -.33183320E+03  d E =-.163479E-01
 curvature:   0.24 expect dE= 0.511E-01 dE for cont linesearch  0.729E-02
 ZBRENT: interpolating
 opt :   0.5639  next Energy=  -331.851521 (dE=-0.343E-01)
 bond charge predicted
       N       E                     dE             d eps       ncg     rms          rms(c)
DAV:   1    -0.331870396501E+03   -0.36831E-01   -0.36259E+00 15240   0.791E+00    0.192E+00
DAV:   2    -0.331872374565E+03   -0.19781E-02   -0.47416E-01 23064   0.287E+00    0.115E+00
DAV:   3    -0.331874427838E+03   -0.20533E-02   -0.34108E-01 22824   0.188E+00    0.105E+00
DAV:   4    -0.331855850113E+03    0.18578E-01   -0.12860E-01 22216   0.122E+00    0.498E-01
DAV:   5    -0.331852505789E+03    0.33443E-02   -0.53020E-02 22568   0.745E-01    0.365E-01
DAV:   6    -0.331851062122E+03    0.14437E-02   -0.24081E-02 23864   0.444E-01    0.226E-01
DAV:   7    -0.331850943440E+03    0.11868E-03   -0.88213E-03 20872   0.264E-01    0.172E-01
DAV:   8    -0.331850724416E+03    0.21902E-03   -0.27839E-03 20000   0.153E-01    0.105E-01
DAV:   9    -0.331850757412E+03   -0.32996E-04   -0.69328E-04 15520   0.923E-02
  10 F= -.33185076E+03 E0= -.33185000E+03  d E =-.334899E-01
 curvature:  -0.24 expect dE=-0.129E-01 dE for cont linesearch -0.471E-04
 trial: gam= 0.59320 g(F)=  0.332E-01 g(S)=  0.209E-01 ort =-0.703E-02 (trialstep = 0.363E+00)
 search vector abs. value=  0.134E+00
 bond charge predicted
       N       E                     dE             d eps       ncg     rms          rms(c)
DAV:   1    -0.331863268480E+03   -0.12544E-01   -0.13108E+00 16480   0.377E+00    0.254E-01
DAV:   2    -0.331870060921E+03   -0.67924E-02   -0.72250E-02 24192   0.112E+00    0.387E-01
DAV:   3    -0.331867999566E+03    0.20614E-02   -0.21602E-02 23784   0.477E-01    0.177E-01
DAV:   4    -0.331867749971E+03    0.24959E-03   -0.32585E-03 21928   0.184E-01    0.123E-01
DAV:   5    -0.331867629145E+03    0.12083E-03   -0.12325E-03 18208   0.119E-01    0.929E-02
DAV:   6    -0.331867627125E+03    0.20194E-05   -0.12968E-03 17776   0.119E-01    0.843E-02
DAV:   7    -0.331867520252E+03    0.10687E-03   -0.86427E-04 16600   0.102E-01    0.368E-02
DAV:   8    -0.331867500788E+03    0.19463E-04   -0.21002E-04 11176   0.655E-02
  11 F= -.33186750E+03 E0= -.33186707E+03  d E =-.167434E-01
 ZBRENT: can't locate minimum, use default step
 trial-energy change:   -0.016743  1 .order   -0.016623   -0.018133   -0.015112
 step:   1.4522(harm=  2.1788)  dis= 0.05276  next Energy=  -331.905170 (dE=-0.544E-01)
 bond charge predicted
       N       E                     dE             d eps       ncg     rms          rms(c)
DAV:   1    -0.331861294476E+03    0.62258E-02   -0.11783E+01 16336   0.113E+01    0.832E-01
DAV:   2    -0.331928805801E+03   -0.67511E-01   -0.72022E-01 24424   0.353E+00    0.131E+00
DAV:   3    -0.331904280478E+03    0.24525E-01   -0.23190E-01 23640   0.152E+00    0.550E-01
DAV:   4    -0.331901973884E+03    0.23066E-02   -0.30384E-02 24664   0.575E-01    0.390E-01
DAV:   5    -0.331900805573E+03    0.11683E-02   -0.12864E-02 22072   0.359E-01    0.296E-01
DAV:   6    -0.331900500519E+03    0.30505E-03   -0.10714E-02 23312   0.345E-01    0.242E-01
DAV:   7    -0.331899611907E+03    0.88861E-03   -0.83889E-03 22856   0.278E-01    0.127E-01
DAV:   8    -0.331899375382E+03    0.23652E-03   -0.26787E-03 20264   0.166E-01    0.812E-02
DAV:   9    -0.331899279901E+03    0.95481E-04   -0.76684E-04 16416   0.900E-02
  12 F= -.33189928E+03 E0= -.33189979E+03  d E =-.485225E-01
 curvature:  -2.45 expect dE=-0.685E-01 dE for cont linesearch -0.440E-02
 ZBRENT: increasing intervall
 opt :   3.6305  next Energy=  -331.876106 (dE=-0.253E-01)
 bond charge predicted
       N       E                     dE             d eps       ncg     rms          rms(c)
DAV:   1    -0.331714863218E+03    0.18451E+00   -0.46993E+01 16304   0.227E+01    0.193E+00
DAV:   2    -0.332008826353E+03   -0.29396E+00   -0.31625E+00 24888   0.732E+00    0.288E+00
DAV:   3    -0.331900039181E+03    0.10879E+00   -0.11504E+00 23880   0.333E+00    0.123E+00
DAV:   4    -0.331887422230E+03    0.12617E-01   -0.12194E-01 24944   0.120E+00    0.828E-01
DAV:   5    -0.331882882248E+03    0.45400E-02   -0.46261E-02 23112   0.678E-01    0.649E-01
DAV:   6    -0.331881422427E+03    0.14598E-02   -0.37504E-02 23472   0.661E-01    0.493E-01
DAV:   7    -0.331877639585E+03    0.37828E-02   -0.28759E-02 23240   0.544E-01    0.246E-01
DAV:   8    -0.331877052406E+03    0.58718E-03   -0.10807E-02 24560   0.333E-01    0.189E-01
DAV:   9    -0.331876566108E+03    0.48630E-03   -0.36373E-03 20632   0.183E-01    0.793E-02
DAV:  10    -0.331876522714E+03    0.43394E-04   -0.78611E-04 17200   0.980E-02
  13 F= -.33187652E+03 E0= -.33187834E+03  d E =-.257653E-01
 curvature:  12.91 expect dE= 0.981E+00 dE for cont linesearch  0.141E+00
 ZBRENT: bracketing found
 ZBRENT: interpolating
 opt :   2.0799  next Energy=  -331.904143 (dE=-0.534E-01)
 bond charge predicted
       N       E                     dE             d eps       ncg     rms          rms(c)
DAV:   1    -0.331821381897E+03    0.55184E-01   -0.23751E+01 16056   0.161E+01    0.125E+00
DAV:   2    -0.331944157453E+03   -0.12278E+00   -0.13349E+00 24496   0.502E+00    0.149E+00
DAV:   3    -0.331916429116E+03    0.27728E-01   -0.36964E-01 23720   0.203E+00    0.799E-01
DAV:   4    -0.331908917174E+03    0.75119E-02   -0.63320E-02 23408   0.813E-01    0.505E-01
DAV:   5    -0.331907349639E+03    0.15675E-02   -0.21580E-02 22888   0.455E-01    0.392E-01
DAV:   6    -0.331906830069E+03    0.51957E-03   -0.18007E-02 23552   0.447E-01    0.311E-01
DAV:   7    -0.331905259722E+03    0.15703E-02   -0.13299E-02 23664   0.382E-01    0.177E-01
DAV:   8    -0.331904914483E+03    0.34524E-03   -0.52244E-03 20872   0.222E-01    0.121E-01
DAV:   9    -0.331904691539E+03    0.22294E-03   -0.17524E-03 19248   0.122E-01    0.465E-02
DAV:  10    -0.331904679695E+03    0.11845E-04   -0.27595E-04 12416   0.664E-02
  14 F= -.33190468E+03 E0= -.33190566E+03  d E =-.539223E-01
 curvature:  -0.44 expect dE=-0.144E-01 dE for cont linesearch -0.102E-04
 trial: gam= 0.17214 g(F)=  0.214E-01 g(S)=  0.110E-01 ort = 0.176E-02 (trialstep = 0.706E+00)
 search vector abs. value=  0.370E-01
 bond charge predicted
       N       E                     dE             d eps       ncg     rms          rms(c)
DAV:   1    -0.331930167877E+03   -0.25476E-01   -0.22390E+00 15632   0.620E+00    0.153E+00
DAV:   2    -0.331934690621E+03   -0.45227E-02   -0.32507E-01 23128   0.233E+00    0.102E+00
DAV:   3    -0.331934024632E+03    0.66599E-03   -0.27188E-01 22376   0.163E+00    0.936E-01
DAV:   4    -0.331921911463E+03    0.12113E-01   -0.10905E-01 22760   0.103E+00    0.491E-01
DAV:   5    -0.331918259213E+03    0.36523E-02   -0.45189E-02 23032   0.647E-01    0.287E-01
DAV:   6    -0.331917184197E+03    0.10750E-02   -0.11876E-02 23424   0.350E-01    0.168E-01
DAV:   7    -0.331917146934E+03    0.37263E-04   -0.49870E-03 20656   0.212E-01    0.128E-01
DAV:   8    -0.331917049482E+03    0.97453E-04   -0.15533E-03 20128   0.125E-01    0.868E-02
DAV:   9    -0.331917079246E+03   -0.29765E-04   -0.52417E-04 14448   0.755E-02
  15 F= -.33191708E+03 E0= -.33191816E+03  d E =-.123996E-01
 trial-energy change:   -0.012400  1 .order   -0.013079   -0.023152   -0.003006
 step:   0.8455(harm=  0.8118)  dis= 0.00788  next Energy=  -331.917370 (dE=-0.127E-01)
 bond charge predicted
       N       E                     dE             d eps       ncg     rms          rms(c)
DAV:   1    -0.331917631743E+03   -0.58226E-03   -0.87483E-02 15800   0.122E+00    0.294E-01
DAV:   2    -0.331917806017E+03   -0.17427E-03   -0.12726E-02 22392   0.482E-01    0.203E-01
DAV:   3    -0.331917643665E+03    0.16235E-03   -0.10094E-02 21216   0.320E-01    0.168E-01
DAV:   4    -0.331917253988E+03    0.38968E-03   -0.39664E-03 20480   0.207E-01    0.946E-02
DAV:   5    -0.331917117799E+03    0.13619E-03   -0.16228E-03 19360   0.127E-01    0.544E-02
DAV:   6    -0.331917083572E+03    0.34227E-04   -0.27907E-04 11184   0.677E-02
  16 F= -.33191708E+03 E0= -.33191816E+03  d E =-.124039E-01
 curvature:  -0.41 expect dE=-0.166E-01 dE for cont linesearch -0.628E-04
 trial: gam= 1.32636 g(F)=  0.111E-01 g(S)=  0.292E-01 ort =-0.238E-02 (trialstep = 0.274E+00)
 search vector abs. value=  0.991E-01
 bond charge predicted
       N       E                     dE             d eps       ncg     rms          rms(c)
DAV:   1    -0.331923481450E+03   -0.63637E-02   -0.82786E-01 16520   0.305E+00    0.285E-01
DAV:   2    -0.331927667553E+03   -0.41861E-02   -0.49182E-02 24888   0.923E-01    0.343E-01
DAV:   3    -0.331926623246E+03    0.10443E-02   -0.14932E-02 23920   0.379E-01    0.218E-01
DAV:   4    -0.331926283666E+03    0.33958E-03   -0.27574E-03 20904   0.170E-01    0.147E-01
DAV:   5    -0.331926249834E+03    0.33832E-04   -0.18965E-03 19264   0.136E-01    0.117E-01
DAV:   6    -0.331926139790E+03    0.11004E-03   -0.14933E-03 18680   0.133E-01    0.687E-02
DAV:   7    -0.331926052850E+03    0.86941E-04   -0.68541E-04 15488   0.981E-02
  17 F= -.33192605E+03 E0= -.33192707E+03  d E =-.896928E-02
 trial-energy change:   -0.008969  1 .order   -0.008892   -0.010177   -0.007606
 step:   1.0865(harm=  1.0865)  dis= 0.01648  next Energy=  -331.937227 (dE=-0.201E-01)
 bond charge predicted
       N       E                     dE             d eps       ncg     rms          rms(c)
DAV:   1    -0.331913039763E+03    0.13100E-01   -0.72269E+00 16272   0.903E+00    0.857E-01
DAV:   2    -0.331949825237E+03   -0.36785E-01   -0.43470E-01 24688   0.277E+00    0.944E-01
DAV:   3    -0.331942184815E+03    0.76404E-02   -0.12907E-01 23904   0.112E+00    0.608E-01
DAV:   4    -0.331939073646E+03    0.31112E-02   -0.26337E-02 23584   0.523E-01    0.386E-01
DAV:   5    -0.331938610606E+03    0.46304E-03   -0.15858E-02 22944   0.391E-01    0.301E-01
DAV:   6    -0.331938086681E+03    0.52393E-03   -0.11489E-02 23080   0.350E-01    0.203E-01
DAV:   7    -0.331937342547E+03    0.74413E-03   -0.56969E-03 22776   0.232E-01    0.822E-02
DAV:   8    -0.331937296781E+03    0.45765E-04   -0.91243E-04 18160   0.965E-02
  18 F= -.33193730E+03 E0= -.33193807E+03  d E =-.202132E-01
 curvature:  -1.45 expect dE=-0.213E-01 dE for cont linesearch -0.427E-05
 trial: gam= 0.15141 g(F)=  0.122E-01 g(S)=  0.246E-02 ort =-0.540E-03 (trialstep = 0.437E+00)
 search vector abs. value=  0.168E-01
 bond charge predicted
       N       E                     dE             d eps       ncg     rms          rms(c)
DAV:   1    -0.331942676010E+03   -0.53335E-02   -0.35082E-01 15136   0.221E+00    0.462E-01
DAV:   2    -0.331943152931E+03   -0.47692E-03   -0.32937E-02 21616   0.717E-01    0.249E-01
DAV:   3    -0.331943628769E+03   -0.47584E-03   -0.17307E-02 22160   0.441E-01    0.264E-01
DAV:   4    -0.331942573710E+03    0.10551E-02   -0.87196E-03 20384   0.311E-01    0.134E-01
DAV:   5    -0.331942342504E+03    0.23121E-03   -0.33030E-03 20744   0.186E-01    0.862E-02
DAV:   6    -0.331942244404E+03    0.98100E-04   -0.10915E-03 18088   0.103E-01    0.409E-02
DAV:   7    -0.331942244067E+03    0.33727E-06   -0.22995E-04 10864   0.640E-02
  19 F= -.33194224E+03 E0= -.33194299E+03  d E =-.494729E-02
 trial-energy change:   -0.004947  1 .order   -0.005054   -0.006364   -0.003745
 step:   1.0614(harm=  1.0614)  dis= 0.00917  next Energy=  -331.945028 (dE=-0.773E-02)
 bond charge predicted
       N       E                     dE             d eps       ncg     rms          rms(c)
DAV:   1    -0.331945850765E+03   -0.36064E-02   -0.71417E-01 15120   0.315E+00    0.663E-01
DAV:   2    -0.331946998936E+03   -0.11482E-02   -0.69365E-02 21560   0.104E+00    0.381E-01
DAV:   3    -0.331947828868E+03   -0.82993E-03   -0.40611E-02 22216   0.667E-01    0.390E-01
DAV:   4    -0.331945270023E+03    0.25588E-02   -0.16728E-02 21624   0.444E-01    0.171E-01
DAV:   5    -0.331944926597E+03    0.34343E-03   -0.62557E-03 22720   0.257E-01    0.124E-01
DAV:   6    -0.331944766003E+03    0.16059E-03   -0.25367E-03 20072   0.146E-01    0.749E-02
DAV:   7    -0.331944758891E+03    0.71116E-05   -0.86032E-04 17920   0.929E-02
  20 F= -.33194476E+03 E0= -.33194544E+03  d E =-.746211E-02
 curvature:  -0.61 expect dE=-0.110E-01 dE for cont linesearch -0.141E-06
 trial: gam= 1.23626 g(F)=  0.381E-02 g(S)=  0.142E-01 ort =-0.622E-04 (trialstep = 0.217E+00)
 search vector abs. value=  0.435E-01
 bond charge predicted
       N       E                     dE             d eps       ncg     rms          rms(c)
DAV:   1    -0.331947927481E+03   -0.31615E-02   -0.21476E-01 15152   0.160E+00    0.279E-01
DAV:   2    -0.331949178018E+03   -0.12505E-02   -0.22294E-02 22728   0.570E-01    0.257E-01
DAV:   3    -0.331948552495E+03    0.62552E-03   -0.11206E-02 21840   0.327E-01    0.175E-01
DAV:   4    -0.331948311791E+03    0.24070E-03   -0.31937E-03 20144   0.182E-01    0.112E-01
DAV:   5    -0.331948171629E+03    0.14016E-03   -0.20275E-03 19384   0.146E-01    0.648E-02
DAV:   6    -0.331948094966E+03    0.76662E-04   -0.58407E-04 14576   0.931E-02
  21 F= -.33194809E+03 E0= -.33194876E+03  d E =-.333608E-02
 trial-energy change:   -0.003336  1 .order   -0.003275   -0.003884   -0.002667
 step:   0.6914(harm=  0.6914)  dis= 0.00850  next Energy=  -331.950958 (dE=-0.620E-02)
 bond charge predicted
       N       E                     dE             d eps       ncg     rms          rms(c)
DAV:   1    -0.331949427010E+03   -0.12554E-02   -0.10281E+00 15120   0.351E+00    0.576E-01
DAV:   2    -0.331954842075E+03   -0.54151E-02   -0.95154E-02 22392   0.118E+00    0.494E-01
DAV:   3    -0.331952901102E+03    0.19410E-02   -0.46318E-02 21992   0.679E-01    0.354E-01
DAV:   4    -0.331951808267E+03    0.10928E-02   -0.15033E-02 21984   0.393E-01    0.223E-01
DAV:   5    -0.331951073329E+03    0.73494E-03   -0.87669E-03 22568   0.291E-01    0.118E-01
DAV:   6    -0.331950877984E+03    0.19534E-03   -0.24724E-03 20432   0.163E-01    0.773E-02
DAV:   7    -0.331950827624E+03    0.50360E-04   -0.10916E-03 18416   0.105E-01    0.511E-02
DAV:   8    -0.331950796052E+03    0.31571E-04   -0.17873E-04 10520   0.604E-02
  22 F= -.33195080E+03 E0= -.33195148E+03  d E =-.603716E-02
 curvature:  -0.84 expect dE=-0.312E-02 dE for cont linesearch -0.462E-05
 trial: gam= 0.19779 g(F)=  0.361E-02 g(S)=  0.116E-03 ort =-0.489E-03 (trialstep = 0.312E+00)
 search vector abs. value=  0.523E-02
 bond charge predicted
       N       E                     dE             d eps       ncg     rms          rms(c)
DAV:   1    -0.331951729033E+03   -0.90141E-03   -0.49440E-02 16616   0.704E-01    0.742E-02
DAV:   2    -0.331951949946E+03   -0.22091E-03   -0.24607E-03 24152   0.207E-01    0.768E-02
DAV:   3    -0.331951891176E+03    0.58770E-04   -0.94615E-04 16480   0.957E-02
  23 F= -.33195189E+03 E0= -.33195259E+03  d E =-.109512E-02
 ZBRENT: can't locate minimum, use default step
 trial-energy change:   -0.001095  1 .order   -0.001088   -0.001130   -0.001047
 step:   1.2462(harm=  4.2448)  dis= 0.00513  next Energy=  -331.958491 (dE=-0.770E-02)
 bond charge predicted
       N       E                     dE             d eps       ncg     rms          rms(c)
DAV:   1    -0.331953071355E+03   -0.11214E-02   -0.44143E-01 16560   0.210E+00    0.204E-01
DAV:   2    -0.331954616859E+03   -0.15455E-02   -0.19860E-02 25104   0.588E-01    0.188E-01
DAV:   3    -0.331954503445E+03    0.11341E-03   -0.57583E-03 23008   0.226E-01    0.145E-01
DAV:   4    -0.331954276058E+03    0.22739E-03   -0.13757E-03 18920   0.119E-01    0.873E-02
DAV:   5    -0.331954308674E+03   -0.32615E-04   -0.88533E-04 17128   0.946E-02
  24 F= -.33195431E+03 E0= -.33195500E+03  d E =-.351262E-02
 curvature:  -1.28 expect dE=-0.305E-02 dE for cont linesearch -0.102E-02
 ZBRENT: increasing intervall
 opt :   3.1155  next Energy=  -331.955640 (dE=-0.484E-02)
 bond charge predicted
       N       E                     dE             d eps       ncg     rms          rms(c)
DAV:   1    -0.331950199301E+03    0.40768E-02   -0.17649E+00 16576   0.420E+00    0.403E-01
DAV:   2    -0.331956405955E+03   -0.62067E-02   -0.77092E-02 25016   0.117E+00    0.354E-01
DAV:   3    -0.331956309192E+03    0.96763E-04   -0.21520E-02 24344   0.433E-01    0.290E-01
DAV:   4    -0.331955291458E+03    0.10177E-02   -0.51860E-03 20952   0.226E-01    0.165E-01
DAV:   5    -0.331955497418E+03   -0.20596E-03   -0.33196E-03 19872   0.175E-01    0.171E-01
DAV:   6    -0.331955028757E+03    0.46866E-03   -0.21396E-03 20544   0.155E-01    0.533E-02
DAV:   7    -0.331954996701E+03    0.32057E-04   -0.50842E-04 14472   0.867E-02
  25 F= -.33195500E+03 E0= -.33195565E+03  d E =-.420065E-02
 curvature:  -1.68 expect dE=-0.159E-01 dE for cont linesearch -0.236E-03
 trial: gam= 0.00000 g(F)=  0.439E-02 g(S)=  0.508E-02 ort =-0.857E-03 (trialstep = 0.482E+00)
 search vector abs. value=  0.947E-02
 bond charge predicted
       N       E                     dE             d eps       ncg     rms          rms(c)
DAV:   1    -0.331961978216E+03   -0.69495E-02   -0.30417E-01 19720   0.245E+00    0.720E-01
DAV:   2    -0.331961621414E+03    0.35680E-03   -0.63499E-02 25816   0.106E+00    0.514E-01
DAV:   3    -0.331959452133E+03    0.21693E-02   -0.53506E-02 22824   0.677E-01    0.365E-01
DAV:   4    -0.331957660159E+03    0.17920E-02   -0.18257E-02 23904   0.421E-01    0.172E-01
DAV:   5    -0.331957332721E+03    0.32744E-03   -0.62308E-03 22368   0.256E-01    0.146E-01
DAV:   6    -0.331957111388E+03    0.22133E-03   -0.30282E-03 20224   0.160E-01    0.781E-02
DAV:   7    -0.331957117262E+03   -0.58738E-05   -0.63147E-04 16152   0.856E-02
  26 F= -.33195712E+03 E0= -.33195776E+03  d E =-.212056E-02
 trial-energy change:   -0.002121  1 .order   -0.002226   -0.004562    0.000109
 step:   0.4704(harm=  0.4704)  dis= 0.00223  next Energy=  -331.957224 (dE=-0.223E-02)
 bond charge predicted
       N       E                     dE             d eps       ncg     rms          rms(c)
DAV:   1    -0.331957131041E+03   -0.19654E-04   -0.44741E-04 13664   0.922E-02    0.521E-02
DAV:   2    -0.331957255143E+03   -0.12410E-03   -0.95261E-04 16312   0.117E-01    0.793E-02
DAV:   3    -0.331957139978E+03    0.11516E-03   -0.63734E-04 15272   0.944E-02    0.280E-02
DAV:   4    -0.331957146760E+03   -0.67818E-05   -0.11449E-04  9352   0.475E-02
  27 F= -.33195715E+03 E0= -.33195778E+03  d E =-.215006E-02
 curvature:  -0.24 expect dE=-0.661E-03 dE for cont linesearch -0.129E-12
 trial: gam= 0.29662 g(F)=  0.158E-02 g(S)=  0.123E-02 ort = 0.722E-07 (trialstep = 0.479E+00)
 search vector abs. value=  0.364E-02
 bond charge predicted
       N       E                     dE             d eps       ncg     rms          rms(c)
DAV:   1    -0.331957986990E+03   -0.84701E-03   -0.97978E-02 15120   0.104E+00    0.148E-01
DAV:   2    -0.331958548513E+03   -0.56152E-03   -0.87425E-03 22232   0.354E-01    0.156E-01
DAV:   3    -0.331958282262E+03    0.26625E-03   -0.39224E-03 20880   0.197E-01    0.904E-02
DAV:   4    -0.331958198861E+03    0.83401E-04   -0.79870E-04 16528   0.963E-02
  28 F= -.33195820E+03 E0= -.33195887E+03  d E =-.105210E-02
 trial-energy change:   -0.001052  1 .order   -0.001033   -0.001347   -0.000719
 step:   1.0278(harm=  1.0278)  dis= 0.00389  next Energy=  -331.958591 (dE=-0.144E-02)
 bond charge predicted
       N       E                     dE             d eps       ncg     rms          rms(c)
DAV:   1    -0.331958251686E+03    0.30577E-04   -0.12730E-01 15136   0.118E+00    0.173E-01
DAV:   2    -0.331959055112E+03   -0.80343E-03   -0.11273E-02 22016   0.418E-01    0.190E-01
DAV:   3    -0.331958585191E+03    0.46992E-03   -0.53601E-03 21008   0.239E-01    0.989E-02
DAV:   4    -0.331958478677E+03    0.10651E-03   -0.99786E-04 17512   0.107E-01    0.581E-02
DAV:   5    -0.331958464636E+03    0.14041E-04   -0.65302E-04 15960   0.881E-02
  29 F= -.33195846E+03 E0= -.33195914E+03  d E =-.131788E-02
 curvature:  -0.67 expect dE=-0.637E-03 dE for cont linesearch -0.387E-05
 trial: gam= 0.31269 g(F)=  0.944E-03 g(S)=  0.122E-04 ort =-0.145E-03 (trialstep = 0.589E+00)
 search vector abs. value=  0.122E-02
 bond charge predicted
       N       E                     dE             d eps       ncg     rms          rms(c)
DAV:   1    -0.331958735325E+03   -0.25665E-03   -0.38540E-02 15352   0.669E-01    0.849E-02
DAV:   2    -0.331958962771E+03   -0.22745E-03   -0.31856E-03 22032   0.225E-01    0.866E-02
DAV:   3    -0.331958887900E+03    0.74871E-04   -0.12029E-03 17600   0.109E-01    0.489E-02
DAV:   4    -0.331958845403E+03    0.42497E-04   -0.13927E-04 10640   0.553E-02
  30 F= -.33195885E+03 E0= -.33195954E+03  d E =-.380767E-03
 trial-energy change:   -0.000381  1 .order   -0.000466   -0.000536   -0.000396
 step:   2.2500(harm=  2.2500)  dis= 0.00549  next Energy=  -331.959489 (dE=-0.102E-02)
 bond charge predicted
       N       E                     dE             d eps       ncg     rms          rms(c)
DAV:   1    -0.331958463398E+03    0.42450E-03   -0.30814E-01 15320   0.190E+00    0.243E-01
DAV:   2    -0.331960126585E+03   -0.16632E-02   -0.24049E-02 22584   0.600E-01    0.223E-01
DAV:   3    -0.331959739811E+03    0.38677E-03   -0.86376E-03 21352   0.307E-01    0.156E-01
DAV:   4    -0.331959428047E+03    0.31176E-03   -0.23275E-03 20224   0.163E-01    0.847E-02
DAV:   5    -0.331959395082E+03    0.32964E-04   -0.13173E-03 18832   0.115E-01    0.668E-02
DAV:   6    -0.331959340492E+03    0.54591E-04   -0.65503E-04 15056   0.920E-02
  31 F= -.33195934E+03 E0= -.33196001E+03  d E =-.875855E-03
 curvature:  -1.51 expect dE=-0.471E-02 dE for cont linesearch -0.495E-05
 trial: gam= 3.03494 g(F)=  0.417E-03 g(S)=  0.271E-02 ort = 0.633E-04 (trialstep = 0.762E-01)
 search vector abs. value=  0.148E-01
 reached required accuracy - stopping structural energy minimisation
 writing wavefunctions
VASP is done!
