<?xml version="1.0" encoding="ISO-8859-1"?>
<modeling>
 <generator>
  <i name="program" type="string">vasp </i>
  <i name="version" type="string">5.4.4.18Apr17-6-g9f103f2a35  </i>
  <i name="subversion" type="string">(build Aug 09 2018 16:20:53) complex            parallel </i>
  <i name="platform" type="string">LinuxIFC </i>
  <i name="date" type="string">2020 04 13 </i>
  <i name="time" type="string">13:26:30 </i>
 </generator>
 <incar>
  <i type="string" name="SYSTEM"> SQS with 1 vacancy for VFE and VRV</i>
  <i type="string" name="PREC">normal</i>
  <i type="int" name="IALGO">    38</i>
  <i type="int" name="ICHARG">     2</i>
  <i type="int" name="IBRION">     2</i>
  <i type="int" name="NSW">    50</i>
  <i type="int" name="ISIF">     3</i>
  <i type="int" name="ISYM">     0</i>
  <i name="ENCUT">    600.00000000</i>
  <i type="string" name="LREAL"> Auto</i>
  <i type="int" name="ISMEAR">     1</i>
  <i name="SIGMA">      0.20000000</i>
  <v type="int" name="KPOINT_BSE">    -1     0     0     0</v>
  <i type="string" name="GGA"> PS</i>
 </incar>
 <structure name="primitive_cell" >
  <crystal>
   <varray name="basis" >
    <v>      -3.19000000      -3.19000000      -3.19000000 </v>
    <v>       1.59500000       1.59500000      -7.97500000 </v>
    <v>       7.97500000      -7.97500000      -1.59500000 </v>
   </varray>
   <i name="volume">    486.92638500 </i>
   <varray name="rec_basis" >
    <v>      -0.13584117      -0.12539185      -0.05224660 </v>
    <v>       0.04179728       0.06269592      -0.10449321 </v>
    <v>       0.06269592      -0.06269592       0.00000000 </v>
   </varray>
  </crystal>
  <varray name="positions" >
   <v>      -0.03333333      -0.06666667       0.40000000 </v>
   <v>       0.30000000      -0.40000000       0.40000000 </v>
   <v>      -0.10000000      -0.20000000       0.20000000 </v>
   <v>       0.06666667       0.13333333       0.20000000 </v>
   <v>       0.46666667      -0.06666667       0.40000000 </v>
   <v>      -0.13333333      -0.26666667      -0.40000000 </v>
   <v>       0.03333333       0.06666667      -0.40000000 </v>
   <v>      -0.36666667       0.26666667       0.40000000 </v>
   <v>       0.40000000      -0.20000000       0.20000000 </v>
   <v>      -0.20000000      -0.40000000       0.40000000 </v>
   <v>      -0.43333333       0.13333333       0.20000000 </v>
   <v>       0.36666667      -0.26666667      -0.40000000 </v>
   <v>      -0.46666667       0.06666667      -0.40000000 </v>
   <v>       0.23333333       0.46666667       0.20000000 </v>
   <v>       0.20000000       0.40000000      -0.40000000 </v>
   <v>       0.00000000       0.00000000       0.00000000 </v>
   <v>      -0.06666667      -0.13333333      -0.20000000 </v>
   <v>      -0.30000000       0.40000000      -0.40000000 </v>
   <v>      -0.26666667       0.46666667       0.20000000 </v>
   <v>       0.33333333      -0.33333333       0.00000000 </v>
   <v>       0.43333333      -0.13333333      -0.20000000 </v>
   <v>      -0.50000000       0.00000000       0.00000000 </v>
   <v>       0.26666667      -0.46666667      -0.20000000 </v>
   <v>      -0.33333333       0.33333333       0.00000000 </v>
   <v>      -0.40000000       0.20000000      -0.20000000 </v>
   <v>      -0.16666667      -0.33333333       0.00000000 </v>
   <v>      -0.23333333      -0.46666667      -0.20000000 </v>
   <v>       0.16666667       0.33333333       0.00000000 </v>
   <v>       0.10000000       0.20000000      -0.20000000 </v>
  </varray>
 </structure>
 <varray name="primitive_index" >
  <v type="int" >        1 </v>
  <v type="int" >       17 </v>
  <v type="int" >        7 </v>
  <v type="int" >       23 </v>
  <v type="int" >       19 </v>
  <v type="int" >       18 </v>
  <v type="int" >        6 </v>
  <v type="int" >        2 </v>
  <v type="int" >       15 </v>
  <v type="int" >        8 </v>
  <v type="int" >       14 </v>
  <v type="int" >       11 </v>
  <v type="int" >       27 </v>
  <v type="int" >       29 </v>
  <v type="int" >       22 </v>
  <v type="int" >        4 </v>
  <v type="int" >       13 </v>
  <v type="int" >       25 </v>
  <v type="int" >        9 </v>
  <v type="int" >       28 </v>
  <v type="int" >       16 </v>
  <v type="int" >        3 </v>
  <v type="int" >       21 </v>
  <v type="int" >       10 </v>
  <v type="int" >       26 </v>
  <v type="int" >       12 </v>
  <v type="int" >       24 </v>
  <v type="int" >       20 </v>
  <v type="int" >        5 </v>
 </varray>
 <kpoints>
  <generation param="Gamma">
   <v type="int" name="divisions">       5        5        5 </v>
   <v name="usershift">      0.00000000       0.00000000       0.00000000 </v>
   <v name="genvec1">      0.20000000      -0.00000000      -0.00000000 </v>
   <v name="genvec2">      0.00000000       0.20000000       0.00000000 </v>
   <v name="genvec3">      0.00000000       0.00000000       0.20000000 </v>
   <v name="shift">      0.00000000       0.00000000       0.00000000 </v>
  </generation>
  <varray name="kpointlist" >
   <v>       0.00000000       0.00000000       0.00000000 </v>
   <v>       0.20000000      -0.00000000       0.00000000 </v>
   <v>       0.40000000      -0.00000000       0.00000000 </v>
   <v>       0.00000000       0.20000000       0.00000000 </v>
   <v>       0.20000000       0.20000000      -0.00000000 </v>
   <v>       0.40000000       0.20000000      -0.00000000 </v>
   <v>      -0.40000000       0.20000000      -0.00000000 </v>
   <v>      -0.20000000       0.20000000       0.00000000 </v>
   <v>       0.00000000       0.40000000       0.00000000 </v>
   <v>       0.20000000       0.40000000       0.00000000 </v>
   <v>       0.40000000       0.40000000      -0.00000000 </v>
   <v>      -0.40000000       0.40000000       0.00000000 </v>
   <v>      -0.20000000       0.40000000       0.00000000 </v>
   <v>       0.00000000       0.00000000       0.20000000 </v>
   <v>       0.20000000      -0.00000000       0.20000000 </v>
   <v>       0.40000000       0.00000000       0.20000000 </v>
   <v>      -0.40000000       0.00000000       0.20000000 </v>
   <v>      -0.20000000       0.00000000       0.20000000 </v>
   <v>       0.00000000       0.20000000       0.20000000 </v>
   <v>       0.20000000       0.20000000       0.20000000 </v>
   <v>       0.40000000       0.20000000       0.20000000 </v>
   <v>      -0.40000000       0.20000000       0.20000000 </v>
   <v>      -0.20000000       0.20000000       0.20000000 </v>
   <v>       0.00000000       0.40000000       0.20000000 </v>
   <v>       0.20000000       0.40000000       0.20000000 </v>
   <v>       0.40000000       0.40000000       0.20000000 </v>
   <v>      -0.40000000       0.40000000       0.20000000 </v>
   <v>      -0.20000000       0.40000000       0.20000000 </v>
   <v>       0.00000000      -0.40000000       0.20000000 </v>
   <v>       0.20000000      -0.40000000       0.20000000 </v>
   <v>       0.40000000      -0.40000000       0.20000000 </v>
   <v>      -0.40000000      -0.40000000       0.20000000 </v>
   <v>      -0.20000000      -0.40000000       0.20000000 </v>
   <v>       0.00000000      -0.20000000       0.20000000 </v>
   <v>       0.20000000      -0.20000000       0.20000000 </v>
   <v>       0.40000000      -0.20000000       0.20000000 </v>
   <v>      -0.40000000      -0.20000000       0.20000000 </v>
   <v>      -0.20000000      -0.20000000       0.20000000 </v>
   <v>       0.00000000       0.00000000       0.40000000 </v>
   <v>       0.20000000      -0.00000000       0.40000000 </v>
   <v>       0.40000000      -0.00000000       0.40000000 </v>
   <v>      -0.40000000       0.00000000       0.40000000 </v>
   <v>      -0.20000000       0.00000000       0.40000000 </v>
   <v>      -0.00000000       0.20000000       0.40000000 </v>
   <v>       0.20000000       0.20000000       0.40000000 </v>
   <v>       0.40000000       0.20000000       0.40000000 </v>
   <v>      -0.40000000       0.20000000       0.40000000 </v>
   <v>      -0.20000000       0.20000000       0.40000000 </v>
   <v>       0.00000000       0.40000000       0.40000000 </v>
   <v>       0.20000000       0.40000000       0.40000000 </v>
   <v>       0.40000000       0.40000000       0.40000000 </v>
   <v>      -0.40000000       0.40000000       0.40000000 </v>
   <v>      -0.20000000       0.40000000       0.40000000 </v>
   <v>       0.00000000      -0.40000000       0.40000000 </v>
   <v>       0.20000000      -0.40000000       0.40000000 </v>
   <v>       0.40000000      -0.40000000       0.40000000 </v>
   <v>      -0.40000000      -0.40000000       0.40000000 </v>
   <v>      -0.20000000      -0.40000000       0.40000000 </v>
   <v>       0.00000000      -0.20000000       0.40000000 </v>
   <v>       0.20000000      -0.20000000       0.40000000 </v>
   <v>       0.40000000      -0.20000000       0.40000000 </v>
   <v>      -0.40000000      -0.20000000       0.40000000 </v>
   <v>      -0.20000000      -0.20000000       0.40000000 </v>
  </varray>
  <varray name="weights" >
   <v>       0.00800000 </v>
   <v>       0.01600000 </v>
   <v>       0.01600000 </v>
   <v>       0.01600000 </v>
   <v>       0.01600000 </v>
   <v>       0.01600000 </v>
   <v>       0.01600000 </v>
   <v>       0.01600000 </v>
   <v>       0.01600000 </v>
   <v>       0.01600000 </v>
   <v>       0.01600000 </v>
   <v>       0.01600000 </v>
   <v>       0.01600000 </v>
   <v>       0.01600000 </v>
   <v>       0.01600000 </v>
   <v>       0.01600000 </v>
   <v>       0.01600000 </v>
   <v>       0.01600000 </v>
   <v>       0.01600000 </v>
   <v>       0.01600000 </v>
   <v>       0.01600000 </v>
   <v>       0.01600000 </v>
   <v>       0.01600000 </v>
   <v>       0.01600000 </v>
   <v>       0.01600000 </v>
   <v>       0.01600000 </v>
   <v>       0.01600000 </v>
   <v>       0.01600000 </v>
   <v>       0.01600000 </v>
   <v>       0.01600000 </v>
   <v>       0.01600000 </v>
   <v>       0.01600000 </v>
   <v>       0.01600000 </v>
   <v>       0.01600000 </v>
   <v>       0.01600000 </v>
   <v>       0.01600000 </v>
   <v>       0.01600000 </v>
   <v>       0.01600000 </v>
   <v>       0.01600000 </v>
   <v>       0.01600000 </v>
   <v>       0.01600000 </v>
   <v>       0.01600000 </v>
   <v>       0.01600000 </v>
   <v>       0.01600000 </v>
   <v>       0.01600000 </v>
   <v>       0.01600000 </v>
   <v>       0.01600000 </v>
   <v>       0.01600000 </v>
   <v>       0.01600000 </v>
   <v>       0.01600000 </v>
   <v>       0.01600000 </v>
   <v>       0.01600000 </v>
   <v>       0.01600000 </v>
   <v>       0.01600000 </v>
   <v>       0.01600000 </v>
   <v>       0.01600000 </v>
   <v>       0.01600000 </v>
   <v>       0.01600000 </v>
   <v>       0.01600000 </v>
   <v>       0.01600000 </v>
   <v>       0.01600000 </v>
   <v>       0.01600000 </v>
   <v>       0.01600000 </v>
  </varray>
 </kpoints>
 <parameters>
  <separator name="general" >
   <i type="string" name="SYSTEM">SQS with 1 vacancy for VFE and VRV</i>
   <i type="logical" name="LCOMPAT"> F  </i>
  </separator>
  <separator name="electronic" >
   <i type="string" name="PREC">normal</i>
   <i name="ENMAX">    600.00000000</i>
   <i name="ENAUG">    455.65900000</i>
   <i name="EDIFF">      0.00010000</i>
   <i type="int" name="IALGO">    38</i>
   <i type="int" name="IWAVPR">    11</i>
   <i type="int" name="NBANDS">   120</i>
   <i name="NELECT">    198.00000000</i>
   <i type="int" name="TURBO">     0</i>
   <i type="int" name="IRESTART">     0</i>
   <i type="int" name="NREBOOT">     0</i>
   <i type="int" name="NMIN">     0</i>
   <i name="EREF">      0.00000000</i>
   <separator name="electronic smearing" >
    <i type="int" name="ISMEAR">     1</i>
    <i name="SIGMA">      0.20000000</i>
    <i name="KSPACING">      0.50000000</i>
    <i type="logical" name="KGAMMA"> T  </i>
   </separator>
   <separator name="electronic projectors" >
    <i type="logical" name="LREAL"> T  </i>
    <v name="ROPT">     -0.00050000     -0.00050000     -0.00050000     -0.00050000     -0.00050000</v>
    <i type="int" name="LMAXPAW">  -100</i>
    <i type="int" name="LMAXMIX">     2</i>
    <i type="logical" name="NLSPLINE"> F  </i>
   </separator>
   <separator name="electronic startup" >
    <i type="int" name="ISTART">     0</i>
    <i type="int" name="ICHARG">     2</i>
    <i type="int" name="INIWAV">     1</i>
   </separator>
   <separator name="electronic spin" >
    <i type="int" name="ISPIN">     1</i>
    <i type="logical" name="LNONCOLLINEAR"> F  </i>
    <v name="MAGMOM">      1.00000000      1.00000000      1.00000000      1.00000000      1.00000000      1.00000000      1.00000000      1.00000000      1.00000000      1.00000000      1.00000000      1.00000000      1.00000000      1.00000000      1.00000000      1.00000000      1.00000000      1.00000000      1.00000000      1.00000000
      1.00000000      1.00000000      1.00000000      1.00000000      1.00000000      1.00000000      1.00000000      1.00000000      1.00000000</v>
    <i name="NUPDOWN">     -1.00000000</i>
    <i type="logical" name="LSORBIT"> F  </i>
    <v name="SAXIS">      0.00000000      0.00000000      1.00000000</v>
    <i type="logical" name="LSPIRAL"> F  </i>
    <v name="QSPIRAL">      0.00000000      0.00000000      0.00000000</v>
    <i type="logical" name="LZEROZ"> F  </i>
   </separator>
   <separator name="electronic exchange-correlation" >
    <i type="logical" name="LASPH"> F  </i>
    <i type="logical" name="LMETAGGA"> F  </i>
   </separator>
   <separator name="electronic convergence" >
    <i type="int" name="NELM">    60</i>
    <i type="int" name="NELMDL">    -5</i>
    <i type="int" name="NELMIN">     2</i>
    <i name="ENINI">    600.00000000</i>
    <separator name="electronic convergence detail" >
     <i type="logical" name="LDIAG"> T  </i>
     <i type="logical" name="LSUBROT"> F  </i>
     <i name="WEIMIN">      0.00100000</i>
     <i name="EBREAK">      0.00000021</i>
     <i name="DEPER">      0.30000000</i>
     <i type="int" name="NRMM">     4</i>
     <i name="TIME">      0.40000000</i>
    </separator>
   </separator>
   <separator name="electronic mixer" >
    <i name="AMIX">      0.40000000</i>
    <i name="BMIX">      1.00000000</i>
    <i name="AMIN">      0.10000000</i>
    <i name="AMIX_MAG">      1.60000000</i>
    <i name="BMIX_MAG">      1.00000000</i>
    <separator name="electronic mixer details" >
     <i type="int" name="IMIX">     4</i>
     <i type="logical" name="MIXFIRST"> F  </i>
     <i type="int" name="MAXMIX">   -45</i>
     <i name="WC">    100.00000000</i>
     <i type="int" name="INIMIX">     1</i>
     <i type="int" name="MIXPRE">     1</i>
     <i type="int" name="MREMOVE">     5</i>
    </separator>
   </separator>
   <separator name="electronic dipolcorrection" >
    <i type="logical" name="LDIPOL"> F  </i>
    <i type="logical" name="LMONO"> F  </i>
    <i type="int" name="IDIPOL">     0</i>
    <i name="EPSILON">      1.00000000</i>
    <v name="DIPOL">   -100.00000000   -100.00000000   -100.00000000</v>
    <i name="EFIELD">      0.00000000</i>
   </separator>
  </separator>
  <separator name="grids" >
   <i type="int" name="NGX">    36</i>
   <i type="int" name="NGY">    50</i>
   <i type="int" name="NGZ">    70</i>
   <i type="int" name="NGXF">    72</i>
   <i type="int" name="NGYF">   100</i>
   <i type="int" name="NGZF">   140</i>
   <i type="logical" name="ADDGRID"> F  </i>
  </separator>
  <separator name="ionic" >
   <i type="int" name="NSW">    50</i>
   <i type="int" name="IBRION">     2</i>
   <i type="int" name="MDALGO">     0</i>
   <i type="int" name="ISIF">     3</i>
   <i name="PSTRESS">      0.00000000</i>
   <i name="EDIFFG">      0.00100000</i>
   <i type="int" name="NFREE">     1</i>
   <i name="POTIM">      0.50000000</i>
   <i name="SMASS">     -3.00000000</i>
   <i name="SCALEE">      1.00000000</i>
  </separator>
  <separator name="ionic md" >
   <i name="TEBEG">      0.00010000</i>
   <i name="TEEND">      0.00010000</i>
   <i type="int" name="NBLOCK">     1</i>
   <i type="int" name="KBLOCK">    50</i>
   <i type="int" name="NPACO">   256</i>
   <i name="APACO">     16.00000000</i>
  </separator>
  <separator name="symmetry" >
   <i type="int" name="ISYM">     0</i>
   <i name="SYMPREC">      0.00001000</i>
  </separator>
  <separator name="dos" >
   <i type="int" name="LORBIT">     0</i>
   <v name="RWIGS">     -1.00000000     -1.00000000     -1.00000000     -1.00000000     -1.00000000</v>
   <i type="int" name="NEDOS">   301</i>
   <i name="EMIN">     10.00000000</i>
   <i name="EMAX">    -10.00000000</i>
   <i name="EFERMI">      0.00000000</i>
  </separator>
  <separator name="writing" >
   <i type="int" name="NWRITE">     2</i>
   <i type="logical" name="LWAVE"> T  </i>
   <i type="logical" name="LDOWNSAMPLE"> F  </i>
   <i type="logical" name="LCHARG"> T  </i>
   <i type="logical" name="LPARD"> F  </i>
   <i type="logical" name="LVTOT"> F  </i>
   <i type="logical" name="LVHAR"> F  </i>
   <i type="logical" name="LELF"> F  </i>
   <i type="logical" name="LOPTICS"> F  </i>
   <v name="STM">      0.00000000      0.00000000      0.00000000      0.00000000      0.00000000      0.00000000      0.00000000</v>
  </separator>
  <separator name="performance" >
   <i type="int" name="NPAR">     8</i>
   <i type="int" name="NSIM">     4</i>
   <i type="int" name="NBLK">    -1</i>
   <i type="logical" name="LPLANE"> T  </i>
   <i type="logical" name="LSCALAPACK"> T  </i>
   <i type="logical" name="LSCAAWARE"> F  </i>
   <i type="logical" name="LSCALU"> F  </i>
   <i type="logical" name="LASYNC"> F  </i>
   <i type="logical" name="LORBITALREAL"> F  </i>
  </separator>
  <separator name="miscellaneous" >
   <i type="int" name="IDIOT">     3</i>
   <i type="int" name="ISPECIAL">     0</i>
   <i type="logical" name="LMUSIC"> F  </i>
   <v name="POMASS">     92.91000000     95.94000000    180.94800000     47.88000000    183.85000000</v>
   <v name="DARWINR">      0.00000000      0.00000000      0.00000000      0.00000000      0.00000000</v>
   <v name="DARWINV">      1.00000000      1.00000000      1.00000000      1.00000000      1.00000000</v>
   <i type="logical" name="LCORR"> T  </i>
  </separator>
  <i type="logical" name="GGA_COMPAT"> T  </i>
  <i type="logical" name="LBERRY"> F  </i>
  <i type="int" name="ICORELEVEL">     0</i>
  <i type="logical" name="LDAU"> F  </i>
  <i type="int" name="I_CONSTRAINED_M">     0</i>
  <separator name="electronic exchange-correlation" >
   <i type="string" name="GGA">PS</i>
   <i type="int" name="VOSKOWN">     0</i>
   <i type="logical" name="LHFCALC"> F  </i>
   <i type="string" name="PRECFOCK"></i>
   <i type="logical" name="LSYMGRAD"> F  </i>
   <i type="logical" name="LHFONE"> F  </i>
   <i type="logical" name="LRHFCALC"> F  </i>
   <i type="logical" name="LTHOMAS"> F  </i>
   <i type="logical" name="LMODELHF"> F  </i>
   <i name="ENCUT4O">     -1.00000000</i>
   <i type="int" name="EXXOEP">     0</i>
   <i type="int" name="FOURORBIT">     0</i>
   <i name="AEXX">      0.00000000</i>
   <i name="HFALPHA">      0.00000000</i>
   <i name="MCALPHA">      0.00000000</i>
   <i name="ALDAX">      1.00000000</i>
   <i name="AGGAX">      1.00000000</i>
   <i name="ALDAC">      1.00000000</i>
   <i name="AGGAC">      1.00000000</i>
   <i type="int" name="NKREDX">     1</i>
   <i type="int" name="NKREDY">     1</i>
   <i type="int" name="NKREDZ">     1</i>
   <i type="logical" name="SHIFTRED"> F  </i>
   <i type="logical" name="ODDONLY"> F  </i>
   <i type="logical" name="EVENONLY"> F  </i>
   <i type="int" name="LMAXFOCK">     0</i>
   <i type="int" name="NMAXFOCKAE">     0</i>
   <i type="logical" name="LFOCKAEDFT"> F  </i>
   <i name="HFSCREEN">      0.00000000</i>
   <i name="HFSCREENC">      0.00000000</i>
   <i type="int" name="NBANDSGWLOW">     0</i>
  </separator>
  <separator name="vdW DFT" >
   <i type="logical" name="LUSE_VDW"> F  </i>
   <i name="Zab_VDW">     -0.84910000</i>
   <i name="PARAM1">      0.12340000</i>
   <i name="PARAM2">      1.00000000</i>
   <i name="PARAM3">      0.00000000</i>
  </separator>
  <separator name="model GW" >
   <i type="int" name="MODEL_GW">     0</i>
   <i name="MODEL_EPS0">     10.07433900</i>
   <i name="MODEL_ALPHA">      1.00000000</i>
  </separator>
  <separator name="linear response parameters" >
   <i type="logical" name="LEPSILON"> F  </i>
   <i type="logical" name="LRPA"> F  </i>
   <i type="logical" name="LNABLA"> F  </i>
   <i type="logical" name="LVEL"> F  </i>
   <i type="int" name="KINTER">     0</i>
   <i name="CSHIFT">      0.10000000</i>
   <i name="OMEGAMAX">     -1.00000000</i>
   <i name="DEG_THRESHOLD">      0.00200000</i>
   <i name="RTIME">     -0.10000000</i>
   <i name="WPLASMAI">      0.00000000</i>
   <v name="DFIELD">      0.00000000      0.00000000      0.00000000</v>
   <v name="WPLASMA">      0.00000000      0.00000000      0.00000000      0.00000000      0.00000000      0.00000000      0.00000000      0.00000000      0.00000000</v>
  </separator>
  <separator name="orbital magnetization" >
   <i type="logical" name="NUCIND"> F  </i>
   <v name="MAGPOS">      0.00000000      0.00000000      0.00000000</v>
   <i type="logical" name="LNICSALL"> T  </i>
   <i type="logical" name="ORBITALMAG"> F  </i>
   <i type="logical" name="LMAGBLOCH"> F  </i>
   <i type="logical" name="LCHIMAG"> F  </i>
   <i type="logical" name="LGAUGE"> T  </i>
   <i type="int" name="MAGATOM">     0</i>
   <v name="MAGDIPOL">      0.00000000      0.00000000      0.00000000</v>
   <v name="AVECCONST">      0.00000000      0.00000000      0.00000000</v>
  </separator>
  <separator name="response functions" >
   <i type="logical" name="LADDER"> F  </i>
   <i type="logical" name="LRPAFORCE"> F  </i>
   <i type="logical" name="LFXC"> F  </i>
   <i type="logical" name="LHARTREE"> T  </i>
   <i type="int" name="IBSE">     0</i>
   <v type="int" name="KPOINT">    -1     0     0     0</v>
   <i type="logical" name="LTCTE"> F  </i>
   <i type="logical" name="LTETE"> F  </i>
   <i type="logical" name="LTRIPLET"> F  </i>
   <i type="logical" name="LFXCEPS"> F  </i>
   <i type="logical" name="LFXHEG"> F  </i>
   <i type="int" name="NATURALO">     2</i>
   <i type="logical" name="L2ORDER"> F  </i>
   <i type="logical" name="LMP2LT"> F  </i>
   <i type="logical" name="LUSEW"> F  </i>
   <i name="ENCUTGW">     -2.00000000</i>
   <i name="ENCUTGWSOFT">     -2.00000000</i>
   <i name="ENCUTLF">     -1.00000000</i>
   <i type="int" name="LMAXMP2">    -1</i>
   <i name="SCISSOR">      0.00000000</i>
   <i type="int" name="NOMEGA">     0</i>
   <i type="int" name="NOMEGAR">     0</i>
   <i type="int" name="NBANDSGW">    -1</i>
   <i type="int" name="NBANDSO">    -1</i>
   <i type="int" name="NBANDSV">    -1</i>
   <i type="int" name="NELM">     1</i>
   <i type="int" name="NELMHF">     1</i>
   <i type="int" name="DIM">     3</i>
   <i type="int" name="ANTIRES">     0</i>
   <i name="OMEGAMAX">    -30.00000000</i>
   <i name="OMEGAMIN">    -30.00000000</i>
   <i name="OMEGATL">   -200.00000000</i>
   <i type="int" name="OMEGAGRID">   140</i>
   <i name="CSHIFT">     -0.10000000</i>
   <i type="logical" name="SELFENERGY"> F  </i>
   <i type="logical" name="LSPECTRAL"> F  </i>
   <i type="logical" name="LSPECTRALGW"> F  </i>
   <i type="logical" name="LSINGLES"> F  </i>
   <i type="logical" name="LFERMIGW"> F  </i>
   <i type="logical" name="ODDONLYGW"> F  </i>
   <i type="logical" name="EVENONLYGW"> F  </i>
   <i type="int" name="NKREDLFX">     1</i>
   <i type="int" name="NKREDLFY">     1</i>
   <i type="int" name="NKREDLFZ">     1</i>
   <i type="int" name="MAXMEM">  2800</i>
   <i type="int" name="TELESCOPE">     0</i>
   <i type="int" name="TAUPAR">     1</i>
   <i type="int" name="OMEGAPAR">    -1</i>
   <i name="LAMBDA">      1.00000000</i>
  </separator>
  <separator name="External order field" >
   <i name="OFIELD_KAPPA">      0.00000000</i>
   <v name="OFIELD_K">      0.00000000      0.00000000      0.00000000</v>
   <i name="OFIELD_Q6_NEAR">      0.00000000</i>
   <i name="OFIELD_Q6_FAR">      0.00000000</i>
   <i name="OFIELD_A">      0.00000000</i>
  </separator>
  <separator name="solvation model" >
   <i type="logical" name="LSOL"> F  </i>
  </separator>
 </parameters>
 <atominfo>
  <atoms>      29 </atoms>
  <types>       5 </types>
  <array name="atoms" >
   <dimension dim="1">ion</dimension>
   <field type="string">element</field>
   <field type="int">atomtype</field>
   <set>
    <rc><c>Nb</c><c>   1</c></rc>
    <rc><c>Nb</c><c>   1</c></rc>
    <rc><c>Nb</c><c>   1</c></rc>
    <rc><c>Nb</c><c>   1</c></rc>
    <rc><c>Nb</c><c>   1</c></rc>
    <rc><c>Nb</c><c>   1</c></rc>
    <rc><c>Mo</c><c>   2</c></rc>
    <rc><c>Mo</c><c>   2</c></rc>
    <rc><c>Mo</c><c>   2</c></rc>
    <rc><c>Mo</c><c>   2</c></rc>
    <rc><c>Mo</c><c>   2</c></rc>
    <rc><c>Ta</c><c>   3</c></rc>
    <rc><c>Ta</c><c>   3</c></rc>
    <rc><c>Ta</c><c>   3</c></rc>
    <rc><c>Ta</c><c>   3</c></rc>
    <rc><c>Ta</c><c>   3</c></rc>
    <rc><c>Ta</c><c>   3</c></rc>
    <rc><c>Ti</c><c>   4</c></rc>
    <rc><c>Ti</c><c>   4</c></rc>
    <rc><c>Ti</c><c>   4</c></rc>
    <rc><c>Ti</c><c>   4</c></rc>
    <rc><c>Ti</c><c>   4</c></rc>
    <rc><c>Ti</c><c>   4</c></rc>
    <rc><c>W </c><c>   5</c></rc>
    <rc><c>W </c><c>   5</c></rc>
    <rc><c>W </c><c>   5</c></rc>
    <rc><c>W </c><c>   5</c></rc>
    <rc><c>W </c><c>   5</c></rc>
    <rc><c>W </c><c>   5</c></rc>
   </set>
  </array>
  <array name="atomtypes" >
   <dimension dim="1">type</dimension>
   <field type="int">atomspertype</field>
   <field type="string">element</field>
   <field>mass</field>
   <field>valence</field>
   <field type="string">pseudopotential</field>
   <set>
    <rc><c>   6</c><c>Nb</c><c>     92.91000000</c><c>     13.00000000</c><c>  PAW_PBE Nb_sv 25May2007               </c></rc>
    <rc><c>   5</c><c>Mo</c><c>     95.94000000</c><c>      6.00000000</c><c>  PAW_PBE Mo 08Apr2002                  </c></rc>
    <rc><c>   6</c><c>Ta</c><c>    180.94800000</c><c>      5.00000000</c><c>  PAW_PBE Ta 17Jan2003                  </c></rc>
    <rc><c>   6</c><c>Ti</c><c>     47.88000000</c><c>      4.00000000</c><c>  PAW_PBE Ti 08Apr2002                  </c></rc>
    <rc><c>   6</c><c>W </c><c>    183.85000000</c><c>      6.00000000</c><c>  PAW_PBE W 08Apr2002                   </c></rc>
   </set>
  </array>
 </atominfo>
 <structure name="initialpos" >
  <crystal>
   <varray name="basis" >
    <v>      -3.19000000      -3.19000000      -3.19000000 </v>
    <v>       1.59500000       1.59500000      -7.97500000 </v>
    <v>       7.97500000      -7.97500000      -1.59500000 </v>
   </varray>
   <i name="volume">    486.92638500 </i>
   <varray name="rec_basis" >
    <v>      -0.13584117      -0.12539185      -0.05224660 </v>
    <v>       0.04179728       0.06269592      -0.10449321 </v>
    <v>       0.06269592      -0.06269592       0.00000000 </v>
   </varray>
  </crystal>
  <varray name="positions" >
   <v>       0.96666667       0.93333333       0.40000000 </v>
   <v>       0.63333333       0.26666667       0.40000000 </v>
   <v>       0.50000000       0.00000000       0.00000000 </v>
   <v>       0.00000000       0.00000000       0.00000000 </v>
   <v>       0.10000000       0.20000000       0.80000000 </v>
   <v>       0.03333333       0.06666667       0.60000000 </v>
   <v>       0.90000000       0.80000000       0.20000000 </v>
   <v>       0.80000000       0.60000000       0.40000000 </v>
   <v>       0.73333333       0.46666667       0.20000000 </v>
   <v>       0.66666667       0.33333333       0.00000000 </v>
   <v>       0.36666667       0.73333333       0.60000000 </v>
   <v>       0.83333333       0.66666667       0.00000000 </v>
   <v>       0.93333333       0.86666667       0.80000000 </v>
   <v>       0.56666667       0.13333333       0.20000000 </v>
   <v>       0.40000000       0.80000000       0.20000000 </v>
   <v>       0.43333333       0.86666667       0.80000000 </v>
   <v>       0.30000000       0.60000000       0.40000000 </v>
   <v>       0.86666667       0.73333333       0.60000000 </v>
   <v>       0.46666667       0.93333333       0.40000000 </v>
   <v>       0.16666667       0.33333333       0.00000000 </v>
   <v>       0.26666667       0.53333333       0.80000000 </v>
   <v>       0.20000000       0.40000000       0.60000000 </v>
   <v>       0.06666667       0.13333333       0.20000000 </v>
   <v>       0.76666667       0.53333333       0.80000000 </v>
   <v>       0.70000000       0.40000000       0.60000000 </v>
   <v>       0.60000000       0.20000000       0.80000000 </v>
   <v>       0.53333333       0.06666667       0.60000000 </v>
   <v>       0.33333333       0.66666667       0.00000000 </v>
   <v>       0.23333333       0.46666667       0.20000000 </v>
  </varray>
 </structure>
 <calculation>
  <scstep>
   <time name="dav">   18.24   18.27</time>
   <time name="total">   18.28   18.31</time>
   <energy>
    <i name="alphaZ">   1294.27175739 </i>
    <i name="ewald"> -11557.29380528 </i>
    <i name="hartreedc">  -3112.68051854 </i>
    <i name="XCdc">   -844.47116703 </i>
    <i name="pawpsdc">  12039.63450526 </i>
    <i name="pawaedc"> -10545.81420232 </i>
    <i name="eentropy">     -0.00009367 </i>
    <i name="bandstr">   1885.11935774 </i>
    <i name="atom">  12993.56182891 </i>
    <i name="e_fr_energy">   2152.32766244 </i>
    <i name="e_wo_entrp">   2152.32775612 </i>
    <i name="e_0_energy">   2152.32769367 </i>
   </energy>
  </scstep>
  <scstep>
   <time name="dav">   18.14   18.16</time>
   <time name="total">   18.14   18.16</time>
   <energy>
    <i name="e_fr_energy">     72.16864048 </i>
    <i name="e_wo_entrp">     72.16815923 </i>
    <i name="e_0_energy">     72.16848006 </i>
   </energy>
  </scstep>
  <scstep>
   <time name="dav">   28.34   28.38</time>
   <time name="total">   28.34   28.38</time>
   <energy>
    <i name="e_fr_energy">   -301.93710836 </i>
    <i name="e_wo_entrp">   -301.93196562 </i>
    <i name="e_0_energy">   -301.93539411 </i>
   </energy>
  </scstep>
  <scstep>
   <time name="dav">   25.74   25.77</time>
   <time name="total">   25.74   25.78</time>
   <energy>
    <i name="e_fr_energy">   -348.62157940 </i>
    <i name="e_wo_entrp">   -348.62181804 </i>
    <i name="e_0_energy">   -348.62165895 </i>
   </energy>
  </scstep>
  <scstep>
   <time name="dav">   30.51   30.56</time>
   <time name="total">   31.09   31.13</time>
   <energy>
    <i name="e_fr_energy">   -353.67231204 </i>
    <i name="e_wo_entrp">   -353.67447226 </i>
    <i name="e_0_energy">   -353.67303212 </i>
   </energy>
  </scstep>
  <scstep>
   <time name="dav">   23.63   23.66</time>
   <time name="total">   24.25   24.29</time>
   <energy>
    <i name="e_fr_energy">   -344.90333279 </i>
    <i name="e_wo_entrp">   -344.90566586 </i>
    <i name="e_0_energy">   -344.90411048 </i>
   </energy>
  </scstep>
  <scstep>
   <time name="dav">   24.37   24.40</time>
   <time name="total">   24.97   25.01</time>
   <energy>
    <i name="e_fr_energy">   -356.88296901 </i>
    <i name="e_wo_entrp">   -356.86659375 </i>
    <i name="e_0_energy">   -356.87751059 </i>
   </energy>
  </scstep>
  <scstep>
   <time name="dav">   24.60   24.64</time>
   <time name="total">   25.21   25.25</time>
   <energy>
    <i name="e_fr_energy">   -341.64309523 </i>
    <i name="e_wo_entrp">   -341.64904177 </i>
    <i name="e_0_energy">   -341.64507741 </i>
   </energy>
  </scstep>
  <scstep>
   <time name="dav">   24.22   24.25</time>
   <time name="total">   24.83   24.90</time>
   <energy>
    <i name="e_fr_energy">   -334.86064990 </i>
    <i name="e_wo_entrp">   -334.85724851 </i>
    <i name="e_0_energy">   -334.85951610 </i>
   </energy>
  </scstep>
  <scstep>
   <time name="dav">   24.25   24.28</time>
   <time name="total">   24.87   24.90</time>
   <energy>
    <i name="e_fr_energy">   -332.38405377 </i>
    <i name="e_wo_entrp">   -332.38114764 </i>
    <i name="e_0_energy">   -332.38308506 </i>
   </energy>
  </scstep>
  <scstep>
   <time name="dav">   24.90   24.93</time>
   <time name="total">   25.51   25.54</time>
   <energy>
    <i name="e_fr_energy">   -331.21052222 </i>
    <i name="e_wo_entrp">   -331.19565247 </i>
    <i name="e_0_energy">   -331.20556563 </i>
   </energy>
  </scstep>
  <scstep>
   <time name="dav">   25.53   25.56</time>
   <time name="total">   26.14   26.18</time>
   <energy>
    <i name="e_fr_energy">   -331.18396892 </i>
    <i name="e_wo_entrp">   -331.17258499 </i>
    <i name="e_0_energy">   -331.18017428 </i>
   </energy>
  </scstep>
  <scstep>
   <time name="dav">   25.63   25.66</time>
   <time name="total">   26.24   26.27</time>
   <energy>
    <i name="e_fr_energy">   -331.09185539 </i>
    <i name="e_wo_entrp">   -331.07361779 </i>
    <i name="e_0_energy">   -331.08577619 </i>
   </energy>
  </scstep>
  <scstep>
   <time name="dav">   24.78   24.82</time>
   <time name="total">   25.41   25.44</time>
   <energy>
    <i name="e_fr_energy">   -331.06873863 </i>
    <i name="e_wo_entrp">   -331.05091792 </i>
    <i name="e_0_energy">   -331.06279839 </i>
   </energy>
  </scstep>
  <scstep>
   <time name="dav">   25.26   25.29</time>
   <time name="total">   25.89   25.93</time>
   <energy>
    <i name="e_fr_energy">   -331.05151037 </i>
    <i name="e_wo_entrp">   -331.03342926 </i>
    <i name="e_0_energy">   -331.04548333 </i>
   </energy>
  </scstep>
  <scstep>
   <time name="dav">   26.13   26.16</time>
   <time name="total">   26.76   26.80</time>
   <energy>
    <i name="e_fr_energy">   -331.04930976 </i>
    <i name="e_wo_entrp">   -331.03183564 </i>
    <i name="e_0_energy">   -331.04348505 </i>
   </energy>
  </scstep>
  <scstep>
   <time name="dav">   25.08   25.11</time>
   <time name="total">   25.70   25.73</time>
   <energy>
    <i name="e_fr_energy">   -331.04872483 </i>
    <i name="e_wo_entrp">   -331.03039165 </i>
    <i name="e_0_energy">   -331.04261377 </i>
   </energy>
  </scstep>
  <scstep>
   <time name="dav">   23.82   23.88</time>
   <time name="total">   24.44   24.51</time>
   <energy>
    <i name="e_fr_energy">   -331.04722772 </i>
    <i name="e_wo_entrp">   -331.02952507 </i>
    <i name="e_0_energy">   -331.04132684 </i>
   </energy>
  </scstep>
  <scstep>
   <time name="dav">   23.91   23.94</time>
   <time name="total">   24.52   24.56</time>
   <energy>
    <i name="e_fr_energy">   -331.04668001 </i>
    <i name="e_wo_entrp">   -331.02893504 </i>
    <i name="e_0_energy">   -331.04076502 </i>
   </energy>
  </scstep>
  <scstep>
   <time name="dav">   22.06   22.09</time>
   <time name="total">   22.69   22.72</time>
   <energy>
    <i name="e_fr_energy">   -331.04654096 </i>
    <i name="e_wo_entrp">   -331.02882338 </i>
    <i name="e_0_energy">   -331.04063510 </i>
   </energy>
  </scstep>
  <scstep>
   <time name="dav">   16.57   16.60</time>
   <time name="total">   16.61   16.63</time>
   <energy>
    <i name="alphaZ">   1294.27175739 </i>
    <i name="ewald"> -11557.29380528 </i>
    <i name="hartreedc">  -2967.78614918 </i>
    <i name="XCdc">   -838.74730222 </i>
    <i name="pawpsdc">  21005.56461223 </i>
    <i name="pawaedc"> -19512.77318741 </i>
    <i name="eentropy">     -0.01769552 </i>
    <i name="bandstr">   -747.82656337 </i>
    <i name="atom">  12993.56182891 </i>
    <i name="e_fr_energy">   -331.04650446 </i>
    <i name="e_wo_entrp">   -331.02880894 </i>
    <i name="e_0_energy">   -331.04060595 </i>
   </energy>
  </scstep>
  <structure>
   <crystal>
    <varray name="basis" >
     <v>      -3.19000000      -3.19000000      -3.19000000 </v>
     <v>       1.59500000       1.59500000      -7.97500000 </v>
     <v>       7.97500000      -7.97500000      -1.59500000 </v>
    </varray>
    <i name="volume">    486.92638500 </i>
    <varray name="rec_basis" >
     <v>      -0.13584117      -0.12539185      -0.05224660 </v>
     <v>       0.04179728       0.06269592      -0.10449321 </v>
     <v>       0.06269592      -0.06269592       0.00000000 </v>
    </varray>
   </crystal>
   <varray name="positions" >
    <v>       0.96666667       0.93333333       0.40000000 </v>
    <v>       0.63333333       0.26666667       0.40000000 </v>
    <v>       0.50000000       0.00000000       0.00000000 </v>
    <v>       0.00000000       0.00000000       0.00000000 </v>
    <v>       0.10000000       0.20000000       0.80000000 </v>
    <v>       0.03333333       0.06666667       0.60000000 </v>
    <v>       0.90000000       0.80000000       0.20000000 </v>
    <v>       0.80000000       0.60000000       0.40000000 </v>
    <v>       0.73333333       0.46666667       0.20000000 </v>
    <v>       0.66666667       0.33333333       0.00000000 </v>
    <v>       0.36666667       0.73333333       0.60000000 </v>
    <v>       0.83333333       0.66666667       0.00000000 </v>
    <v>       0.93333333       0.86666667       0.80000000 </v>
    <v>       0.56666667       0.13333333       0.20000000 </v>
    <v>       0.40000000       0.80000000       0.20000000 </v>
    <v>       0.43333333       0.86666667       0.80000000 </v>
    <v>       0.30000000       0.60000000       0.40000000 </v>
    <v>       0.86666667       0.73333333       0.60000000 </v>
    <v>       0.46666667       0.93333333       0.40000000 </v>
    <v>       0.16666667       0.33333333       0.00000000 </v>
    <v>       0.26666667       0.53333333       0.80000000 </v>
    <v>       0.20000000       0.40000000       0.60000000 </v>
    <v>       0.06666667       0.13333333       0.20000000 </v>
    <v>       0.76666667       0.53333333       0.80000000 </v>
    <v>       0.70000000       0.40000000       0.60000000 </v>
    <v>       0.60000000       0.20000000       0.80000000 </v>
    <v>       0.53333333       0.06666667       0.60000000 </v>
    <v>       0.33333333       0.66666667       0.00000000 </v>
    <v>       0.23333333       0.46666667       0.20000000 </v>
   </varray>
  </structure>
  <varray name="forces" >
   <v>      -0.06574339       0.62688857       0.59456328 </v>
   <v>       0.26632706      -0.11486190      -0.11149566 </v>
   <v>       0.21277362       0.22138174      -0.36763481 </v>
   <v>       0.34564909      -0.12545992      -0.17778321 </v>
   <v>       0.06695602       0.56337874      -0.49531501 </v>
   <v>      -0.49048716       0.34875961      -0.35814782 </v>
   <v>       0.27326721      -0.56676404       0.05875811 </v>
   <v>      -0.56478331      -0.12912020       0.77998512 </v>
   <v>      -0.01526033      -0.01922246      -0.09730517 </v>
   <v>       0.24830307       0.29732587      -0.43734660 </v>
   <v>      -0.22801443      -0.16981705       0.27559580 </v>
   <v>       0.14914949      -0.47401706       0.36646412 </v>
   <v>       0.24030326       0.21658944      -0.08686780 </v>
   <v>      -0.59358163       0.35489857      -0.20718274 </v>
   <v>      -0.46637249      -0.28601519       0.51132562 </v>
   <v>      -0.77897302       0.05053458       0.71104801 </v>
   <v>       0.22793756      -0.20445121      -0.37919135 </v>
   <v>       0.08339064       0.43978038       0.17503715 </v>
   <v>       0.49041774      -0.73466478      -0.07706356 </v>
   <v>       0.12475202      -0.39374375      -0.25020785 </v>
   <v>      -0.12772904      -0.01797926      -0.24701225 </v>
   <v>      -0.55627993       0.15331432       0.63565411 </v>
   <v>       0.68783810       0.01914546      -0.76715130 </v>
   <v>      -0.34164920      -0.22982393       0.50965994 </v>
   <v>       0.88125627       0.34732427      -0.68412980 </v>
   <v>      -0.12971792       0.51081612      -0.04483153 </v>
   <v>       0.08721092      -0.57171759      -0.51560008 </v>
   <v>      -0.17758133      -0.41318463       0.81905211 </v>
   <v>       0.15064111       0.30070529      -0.13287682 </v>
  </varray>
  <varray name="stress" >
   <v>     -15.68213258      -2.19225668       3.79487446 </v>
   <v>      -2.19225669     -21.27925315      -4.48329979 </v>
   <v>       3.79487457      -4.48329994     -22.84403878 </v>
  </varray>
  <energy>
   <i name="e_fr_energy">   -331.04650446 </i>
   <i name="e_wo_entrp">   -331.04060595 </i>
   <i name="e_0_energy">     -0.01769552 </i>
  </energy>
  <time name="totalsc">  534.11  534.96</time>
 </calculation>
 <calculation>
  <scstep>
   <time name="dav">   18.81   18.82</time>
   <time name="total">   19.42   19.45</time>
   <energy>
    <i name="alphaZ">   1334.22645068 </i>
    <i name="ewald"> -11717.62464405 </i>
    <i name="hartreedc">  -2956.82496943 </i>
    <i name="XCdc">   -834.98094803 </i>
    <i name="pawpsdc">  21006.07568485 </i>
    <i name="pawaedc"> -19513.24344040 </i>
    <i name="eentropy">     -0.01527817 </i>
    <i name="bandstr">   -642.96400475 </i>
    <i name="atom">  12993.56182891 </i>
    <i name="e_fr_energy">   -331.78932040 </i>
    <i name="e_wo_entrp">   -331.77404222 </i>
    <i name="e_0_energy">   -331.78422767 </i>
   </energy>
  </scstep>
  <scstep>
   <time name="dav">   25.34   25.37</time>
   <time name="total">   25.97   26.00</time>
   <energy>
    <i name="e_fr_energy">   -332.15184625 </i>
    <i name="e_wo_entrp">   -332.15113698 </i>
    <i name="e_0_energy">   -332.15160983 </i>
   </energy>
  </scstep>
  <scstep>
   <time name="dav">   25.92   25.95</time>
   <time name="total">   26.54   26.57</time>
   <energy>
    <i name="e_fr_energy">   -331.87666387 </i>
    <i name="e_wo_entrp">   -331.86621638 </i>
    <i name="e_0_energy">   -331.87318137 </i>
   </energy>
  </scstep>
  <scstep>
   <time name="dav">   26.50   26.53</time>
   <time name="total">   27.12   27.14</time>
   <energy>
    <i name="e_fr_energy">   -331.63041929 </i>
    <i name="e_wo_entrp">   -331.61481029 </i>
    <i name="e_0_energy">   -331.62521629 </i>
   </energy>
  </scstep>
  <scstep>
   <time name="dav">   26.03   26.17</time>
   <time name="total">   26.65   26.82</time>
   <energy>
    <i name="e_fr_energy">   -331.47948791 </i>
    <i name="e_wo_entrp">   -331.46998663 </i>
    <i name="e_0_energy">   -331.47632082 </i>
   </energy>
  </scstep>
  <scstep>
   <time name="dav">   28.74   28.78</time>
   <time name="total">   29.37   29.41</time>
   <energy>
    <i name="e_fr_energy">   -331.42177250 </i>
    <i name="e_wo_entrp">   -331.40891060 </i>
    <i name="e_0_energy">   -331.41748520 </i>
   </energy>
  </scstep>
  <scstep>
   <time name="dav">   28.12   28.16</time>
   <time name="total">   28.74   28.78</time>
   <energy>
    <i name="e_fr_energy">   -331.42685144 </i>
    <i name="e_wo_entrp">   -331.41545324 </i>
    <i name="e_0_energy">   -331.42305204 </i>
   </energy>
  </scstep>
  <scstep>
   <time name="dav">   27.62   27.66</time>
   <time name="total">   28.24   28.29</time>
   <energy>
    <i name="e_fr_energy">   -331.41910948 </i>
    <i name="e_wo_entrp">   -331.40670203 </i>
    <i name="e_0_energy">   -331.41497366 </i>
   </energy>
  </scstep>
  <scstep>
   <time name="dav">   25.81   25.84</time>
   <time name="total">   26.45   26.49</time>
   <energy>
    <i name="e_fr_energy">   -331.42039473 </i>
    <i name="e_wo_entrp">   -331.40779585 </i>
    <i name="e_0_energy">   -331.41619510 </i>
   </energy>
  </scstep>
  <scstep>
   <time name="dav">   25.13   25.16</time>
   <time name="total">   25.75   25.78</time>
   <energy>
    <i name="e_fr_energy">   -331.42297576 </i>
    <i name="e_wo_entrp">   -331.41042545 </i>
    <i name="e_0_energy">   -331.41879232 </i>
   </energy>
  </scstep>
  <scstep>
   <time name="dav">   26.22   26.26</time>
   <time name="total">   26.85   26.89</time>
   <energy>
    <i name="e_fr_energy">   -331.42327871 </i>
    <i name="e_wo_entrp">   -331.41059399 </i>
    <i name="e_0_energy">   -331.41905047 </i>
   </energy>
  </scstep>
  <scstep>
   <time name="dav">   25.37   25.40</time>
   <time name="total">   25.99   26.03</time>
   <energy>
    <i name="e_fr_energy">   -331.42340696 </i>
    <i name="e_wo_entrp">   -331.41083998 </i>
    <i name="e_0_energy">   -331.41921797 </i>
   </energy>
  </scstep>
  <scstep>
   <time name="dav">   23.54   23.57</time>
   <time name="total">   24.16   24.19</time>
   <energy>
    <i name="e_fr_energy">   -331.42348335 </i>
    <i name="e_wo_entrp">   -331.41082293 </i>
    <i name="e_0_energy">   -331.41926321 </i>
   </energy>
  </scstep>
  <scstep>
   <time name="dav">   19.80   19.82</time>
   <time name="total">   19.83   19.86</time>
   <energy>
    <i name="alphaZ">   1334.22645068 </i>
    <i name="ewald"> -11717.62464405 </i>
    <i name="hartreedc">  -2901.44723803 </i>
    <i name="XCdc">   -836.59108498 </i>
    <i name="pawpsdc">  22010.14587466 </i>
    <i name="pawaedc"> -20517.99446261 </i>
    <i name="eentropy">     -0.01262697 </i>
    <i name="bandstr">   -695.68755887 </i>
    <i name="atom">  12993.56182891 </i>
    <i name="e_fr_energy">   -331.42346127 </i>
    <i name="e_wo_entrp">   -331.41083430 </i>
    <i name="e_0_energy">   -331.41925228 </i>
   </energy>
  </scstep>
  <structure>
   <crystal>
    <varray name="basis" >
     <v>      -3.16729276      -3.14491489      -3.15204718 </v>
     <v>       1.56528543       1.59414925      -7.88344881 </v>
     <v>       7.91754915      -7.89442662      -1.54320144 </v>
    </varray>
    <i name="volume">    472.34490645 </i>
    <varray name="rec_basis" >
     <v>      -0.13696644      -0.12703015      -0.05288251 </v>
     <v>       0.04240623       0.06318319      -0.10565156 </v>
     <v>       0.06312677      -0.06330765      -0.00026770 </v>
    </varray>
   </crystal>
   <varray name="positions" >
    <v>       0.96180671       0.93209965       0.39790505 </v>
    <v>       0.63256385       0.26741833       0.40115295 </v>
    <v>       0.49819306       0.00295189      -0.00002604 </v>
    <v>      -0.00105811       0.00121371       0.00142492 </v>
    <v>       0.09740165       0.20433591       0.79849851 </v>
    <v>       0.03534065       0.06853794       0.59746160 </v>
    <v>       0.90148958       0.79854057       0.20254077 </v>
    <v>       0.80251633       0.59453870       0.39868229 </v>
    <v>       0.73379488       0.46706828       0.20001198 </v>
    <v>       0.66434320       0.33693799      -0.00014828 </v>
    <v>       0.36849355       0.73097064       0.59982398 </v>
    <v>       0.83429967       0.66368634       0.00188484 </v>
    <v>       0.93066729       0.86824422       0.80007173 </v>
    <v>       0.56893195       0.13425427       0.19713121 </v>
    <v>       0.40349767       0.79561691       0.19945449 </v>
    <v>       0.43634030       0.86166437       0.79749106 </v>
    <v>       0.30069878       0.60175274       0.40130781 </v>
    <v>       0.86301866       0.73394928       0.59892206 </v>
    <v>       0.46809120       0.93248861       0.40370541 </v>
    <v>       0.16886163       0.33365526       0.00156825 </v>
    <v>       0.26823508       0.53426659       0.79966805 </v>
    <v>       0.20111588       0.39613768       0.59785375 </v>
    <v>       0.06397683       0.13864544       0.20202254 </v>
    <v>       0.76901127       0.52938008       0.79966177 </v>
    <v>       0.69384814       0.40627622       0.60161494 </v>
    <v>       0.59787304       0.20150946       0.79806263 </v>
    <v>       0.53751984       0.06771245       0.60199301 </v>
    <v>       0.33493210       0.66093000       0.00071261 </v>
    <v>       0.23086201       0.46854978       0.19954611 </v>
   </varray>
  </structure>
  <varray name="forces" >
   <v>      -0.02338388       0.36497624       0.17973178 </v>
   <v>       0.14856047       0.03052315       0.02587620 </v>
   <v>      -0.05393176       0.16287360       0.03329571 </v>
   <v>       0.12320474      -0.06314777      -0.14129073 </v>
   <v>      -0.03618778       0.16596511      -0.10162912 </v>
   <v>      -0.46154452       0.32744317      -0.37976325 </v>
   <v>       0.05646197      -0.17495788       0.03522229 </v>
   <v>      -0.37387794      -0.28833065       0.46807872 </v>
   <v>       0.00702135      -0.20594516       0.06832933 </v>
   <v>       0.00087310       0.11221788      -0.17427900 </v>
   <v>      -0.07718522      -0.03632790       0.12066921 </v>
   <v>       0.10295911      -0.14444308      -0.01148893 </v>
   <v>       0.03620604       0.01225231      -0.08473712 </v>
   <v>      -0.05290023       0.09916692      -0.06233497 </v>
   <v>      -0.07783332      -0.16113696       0.00606273 </v>
   <v>      -0.10978513       0.04232795       0.29488260 </v>
   <v>       0.12100678      -0.17649114      -0.02447706 </v>
   <v>      -0.04934230       0.23044189       0.14304732 </v>
   <v>       0.36088344      -0.30072406      -0.08374520 </v>
   <v>       0.03618931      -0.19180121      -0.09235764 </v>
   <v>      -0.11378148       0.05691219      -0.00089266 </v>
   <v>      -0.37990717       0.37269267       0.47884755 </v>
   <v>       0.55322064      -0.21613525      -0.65232595 </v>
   <v>      -0.14787997      -0.13067568       0.06874713 </v>
   <v>       0.31648549       0.19393419      -0.26079689 </v>
   <v>       0.01211607       0.20883728      -0.04491426 </v>
   <v>      -0.02135296      -0.17367407      -0.19014616 </v>
   <v>      -0.09854818      -0.04904919       0.26878406 </v>
   <v>       0.20225333      -0.06772455       0.11360430 </v>
  </varray>
  <varray name="stress" >
   <v>      48.60125024      -0.87096331       1.32189411 </v>
   <v>      -0.87096330      46.80325493      -1.91712033 </v>
   <v>       1.32189416      -1.91712032      46.94661821 </v>
  </varray>
  <energy>
   <i name="e_fr_energy">   -331.42346127 </i>
   <i name="e_wo_entrp">   -331.41925228 </i>
   <i name="e_0_energy">     -0.01262697 </i>
  </energy>
  <time name="totalsc">  378.83  379.49</time>
 </calculation>
 <calculation>
  <scstep>
   <time name="dav">   18.62   18.64</time>
   <time name="total">   19.23   19.26</time>
   <energy>
    <i name="alphaZ">   1329.06432019 </i>
    <i name="ewald"> -11697.44455120 </i>
    <i name="hartreedc">  -2902.72049403 </i>
    <i name="XCdc">   -837.06652674 </i>
    <i name="pawpsdc">  22009.76075944 </i>
    <i name="pawaedc"> -20517.55012285 </i>
    <i name="eentropy">     -0.01278646 </i>
    <i name="bandstr">   -709.02995039 </i>
    <i name="atom">  12993.56182891 </i>
    <i name="e_fr_energy">   -331.43752314 </i>
    <i name="e_wo_entrp">   -331.42473668 </i>
    <i name="e_0_energy">   -331.43326099 </i>
   </energy>
  </scstep>
  <scstep>
   <time name="dav">   25.55   25.58</time>
   <time name="total">   26.16   26.19</time>
   <energy>
    <i name="e_fr_energy">   -331.44297182 </i>
    <i name="e_wo_entrp">   -331.42891007 </i>
    <i name="e_0_energy">   -331.43828457 </i>
   </energy>
  </scstep>
  <scstep>
   <time name="dav">   25.62   25.66</time>
   <time name="total">   26.25   26.29</time>
   <energy>
    <i name="e_fr_energy">   -331.44220115 </i>
    <i name="e_wo_entrp">   -331.42902030 </i>
    <i name="e_0_energy">   -331.43780753 </i>
   </energy>
  </scstep>
  <scstep>
   <time name="dav">   25.47   25.50</time>
   <time name="total">   26.08   26.12</time>
   <energy>
    <i name="e_fr_energy">   -331.43575351 </i>
    <i name="e_wo_entrp">   -331.42278188 </i>
    <i name="e_0_energy">   -331.43142964 </i>
   </energy>
  </scstep>
  <scstep>
   <time name="dav">   25.21   25.24</time>
   <time name="total">   25.82   25.85</time>
   <energy>
    <i name="e_fr_energy">   -331.43283420 </i>
    <i name="e_wo_entrp">   -331.41916586 </i>
    <i name="e_0_energy">   -331.42827809 </i>
   </energy>
  </scstep>
  <scstep>
   <time name="dav">   25.65   25.68</time>
   <time name="total">   26.26   26.30</time>
   <energy>
    <i name="e_fr_energy">   -331.43218632 </i>
    <i name="e_wo_entrp">   -331.41885739 </i>
    <i name="e_0_energy">   -331.42774334 </i>
   </energy>
  </scstep>
  <scstep>
   <time name="dav">   23.44   23.47</time>
   <time name="total">   24.06   24.09</time>
   <energy>
    <i name="e_fr_energy">   -331.43221258 </i>
    <i name="e_wo_entrp">   -331.41867851 </i>
    <i name="e_0_energy">   -331.42770122 </i>
   </energy>
  </scstep>
  <scstep>
   <time name="dav">   21.05   21.08</time>
   <time name="total">   21.67   21.69</time>
   <energy>
    <i name="e_fr_energy">   -331.43211123 </i>
    <i name="e_wo_entrp">   -331.41870058 </i>
    <i name="e_0_energy">   -331.42764102 </i>
   </energy>
  </scstep>
  <scstep>
   <time name="dav">   15.75   15.77</time>
   <time name="total">   15.79   15.82</time>
   <energy>
    <i name="alphaZ">   1329.06432019 </i>
    <i name="ewald"> -11697.44455120 </i>
    <i name="hartreedc">  -2910.06523124 </i>
    <i name="XCdc">   -836.84683877 </i>
    <i name="pawpsdc">  21875.06649764 </i>
    <i name="pawaedc"> -20382.34319982 </i>
    <i name="eentropy">     -0.01341991 </i>
    <i name="bandstr">   -702.41152206 </i>
    <i name="atom">  12993.56182891 </i>
    <i name="e_fr_energy">   -331.43211626 </i>
    <i name="e_wo_entrp">   -331.41869636 </i>
    <i name="e_0_energy">   -331.42764296 </i>
   </energy>
  </scstep>
  <structure>
   <crystal>
    <varray name="basis" >
     <v>      -3.17017404      -3.15063565      -3.15686295 </v>
     <v>       1.56905585       1.59425720      -7.89506556 </v>
     <v>       7.92483898      -7.90465043      -1.54977406 </v>
    </varray>
    <i name="volume">    474.17950994 </i>
    <varray name="rec_basis" >
     <v>      -0.13682260      -0.12681999      -0.05280083 </v>
     <v>       0.04232811       0.06312100      -0.10550308 </v>
     <v>       0.06307174      -0.06322927      -0.00023314 </v>
    </varray>
   </crystal>
   <varray name="positions" >
    <v>       0.96243153       0.93225878       0.39817437 </v>
    <v>       0.63266174       0.26732152       0.40100534 </v>
    <v>       0.49842459       0.00257327      -0.00002307 </v>
    <v>      -0.00092342       0.00105753       0.00124245 </v>
    <v>       0.09773554       0.20378030       0.79869015 </v>
    <v>       0.03508467       0.06829875       0.59778570 </v>
    <v>       0.90129699       0.79872685       0.20221563 </v>
    <v>       0.80219489       0.59523969       0.39885177 </v>
    <v>       0.73373564       0.46701674       0.20001027 </v>
    <v>       0.66464101       0.33647568      -0.00012972 </v>
    <v>       0.36825954       0.73127375       0.59984673 </v>
    <v>       0.83417475       0.66406796       0.00164411 </v>
    <v>       0.93100907       0.86804189       0.80006266 </v>
    <v>       0.56864318       0.13413710       0.19749778 </v>
    <v>       0.40304976       0.79617929       0.19952470 </v>
    <v>       0.43595666       0.86230690       0.79781282 </v>
    <v>       0.30060816       0.60152741       0.40113988 </v>
    <v>       0.86348722       0.73387074       0.59906055 </v>
    <v>       0.46790615       0.93259561       0.40323106 </v>
    <v>       0.16857905       0.33361335       0.00136705 </v>
    <v>       0.26803405       0.53414695       0.79971003 </v>
    <v>       0.20097447       0.39663388       0.59812917 </v>
    <v>       0.06432009       0.13796333       0.20176290 </v>
    <v>       0.76871109       0.52988728       0.79970556 </v>
    <v>       0.69463563       0.40547067       0.60140788 </v>
    <v>       0.59814698       0.20131657       0.79831064 </v>
    <v>       0.53698148       0.06757748       0.60173690 </v>
    <v>       0.33472706       0.66166562       0.00062245 </v>
    <v>       0.23117913       0.46830843       0.19960422 </v>
   </varray>
  </structure>
  <varray name="forces" >
   <v>      -0.03266390       0.40893336       0.24368085 </v>
   <v>       0.16894894       0.00764858       0.00692477 </v>
   <v>      -0.01531896       0.17228231      -0.02518059 </v>
   <v>       0.15517968      -0.07243055      -0.14762661 </v>
   <v>      -0.01953414       0.22439425      -0.15912142 </v>
   <v>      -0.46930566       0.33337254      -0.38277569 </v>
   <v>       0.08771542      -0.23084501       0.03738657 </v>
   <v>      -0.40136290      -0.26822952       0.51228525 </v>
   <v>       0.00239017      -0.18123507       0.04372326 </v>
   <v>       0.03876078       0.13910958      -0.21448812 </v>
   <v>      -0.10163016      -0.06328046       0.14807844 </v>
   <v>       0.10070206      -0.18776142       0.04860959 </v>
   <v>       0.05714249       0.04723750      -0.07296610 </v>
   <v>      -0.11966474       0.13088989      -0.07297810 </v>
   <v>      -0.11792672      -0.16886097       0.08855398 </v>
   <v>      -0.20038663       0.03939062       0.33373642 </v>
   <v>       0.13677824      -0.18912549      -0.08188028 </v>
   <v>      -0.02919038       0.26067224       0.14734563 </v>
   <v>       0.38225484      -0.36204915      -0.08375643 </v>
   <v>       0.04637369      -0.22045600      -0.11550649 </v>
   <v>      -0.11339830       0.04797953      -0.03729401 </v>
   <v>      -0.40083861       0.34270871       0.49400994 </v>
   <v>       0.56658597      -0.18588863      -0.66800996 </v>
   <v>      -0.18180072      -0.14195494       0.13274823 </v>
   <v>       0.39816640       0.21600654      -0.32781798 </v>
   <v>      -0.01277664       0.25482135      -0.04285231 </v>
   <v>      -0.00716552      -0.23657045      -0.23475961 </v>
   <v>      -0.11123788      -0.10393715       0.34855071 </v>
   <v>       0.19320321      -0.01282217       0.08138007 </v>
  </varray>
  <varray name="stress" >
   <v>      40.37611356      -0.94472700       1.80673622 </v>
   <v>      -0.94472701      37.98046453      -2.17360163 </v>
   <v>       1.80673611      -2.17360151      37.82548151 </v>
  </varray>
  <energy>
   <i name="e_fr_energy">   -331.43211626 </i>
   <i name="e_wo_entrp">   -331.42764296 </i>
   <i name="e_0_energy">     -0.01341991 </i>
  </energy>
  <time name="totalsc">  229.10  229.45</time>
 </calculation>
 <calculation>
  <scstep>
   <time name="dav">   18.33   18.37</time>
   <time name="total">   18.94   19.14</time>
   <energy>
    <i name="alphaZ">   1312.03732707 </i>
    <i name="ewald"> -11675.10731537 </i>
    <i name="hartreedc">  -2870.12363766 </i>
    <i name="XCdc">   -838.58648087 </i>
    <i name="pawpsdc">  21874.38378940 </i>
    <i name="pawaedc"> -20381.76451898 </i>
    <i name="eentropy">     -0.00749471 </i>
    <i name="bandstr">   -746.01674365 </i>
    <i name="atom">  12993.56182891 </i>
    <i name="e_fr_energy">   -331.62324587 </i>
    <i name="e_wo_entrp">   -331.61575116 </i>
    <i name="e_0_energy">   -331.62074763 </i>
   </energy>
  </scstep>
  <scstep>
   <time name="dav">   24.10   24.16</time>
   <time name="total">   24.71   24.77</time>
   <energy>
    <i name="e_fr_energy">   -331.82112163 </i>
    <i name="e_wo_entrp">   -331.80845023 </i>
    <i name="e_0_energy">   -331.81689783 </i>
   </energy>
  </scstep>
  <scstep>
   <time name="dav">   25.24   25.30</time>
   <time name="total">   25.85   25.92</time>
   <energy>
    <i name="e_fr_energy">   -331.82960527 </i>
    <i name="e_wo_entrp">   -331.82593445 </i>
    <i name="e_0_energy">   -331.82838166 </i>
   </energy>
  </scstep>
  <scstep>
   <time name="dav">   25.16   25.22</time>
   <time name="total">   25.76   25.83</time>
   <energy>
    <i name="e_fr_energy">   -331.73257200 </i>
    <i name="e_wo_entrp">   -331.72393968 </i>
    <i name="e_0_energy">   -331.72969456 </i>
   </energy>
  </scstep>
  <scstep>
   <time name="dav">   25.27   25.33</time>
   <time name="total">   25.87   25.94</time>
   <energy>
    <i name="e_fr_energy">   -331.71334944 </i>
    <i name="e_wo_entrp">   -331.70435668 </i>
    <i name="e_0_energy">   -331.71035185 </i>
   </energy>
  </scstep>
  <scstep>
   <time name="dav">   25.48   25.52</time>
   <time name="total">   26.09   26.13</time>
   <energy>
    <i name="e_fr_energy">   -331.70618769 </i>
    <i name="e_wo_entrp">   -331.69736974 </i>
    <i name="e_0_energy">   -331.70324837 </i>
   </energy>
  </scstep>
  <scstep>
   <time name="dav">   27.41   27.44</time>
   <time name="total">   28.01   28.05</time>
   <energy>
    <i name="e_fr_energy">   -331.70338624 </i>
    <i name="e_wo_entrp">   -331.69472890 </i>
    <i name="e_0_energy">   -331.70050046 </i>
   </energy>
  </scstep>
  <scstep>
   <time name="dav">   25.69   25.73</time>
   <time name="total">   26.30   26.33</time>
   <energy>
    <i name="e_fr_energy">   -331.70190461 </i>
    <i name="e_wo_entrp">   -331.69284787 </i>
    <i name="e_0_energy">   -331.69888570 </i>
   </energy>
  </scstep>
  <scstep>
   <time name="dav">   23.16   23.19</time>
   <time name="total">   23.77   23.81</time>
   <energy>
    <i name="e_fr_energy">   -331.70188844 </i>
    <i name="e_wo_entrp">   -331.69313751 </i>
    <i name="e_0_energy">   -331.69897146 </i>
   </energy>
  </scstep>
  <scstep>
   <time name="dav">   22.84   22.87</time>
   <time name="total">   23.45   23.48</time>
   <energy>
    <i name="e_fr_energy">   -331.70198135 </i>
    <i name="e_wo_entrp">   -331.69320046 </i>
    <i name="e_0_energy">   -331.69905438 </i>
   </energy>
  </scstep>
  <scstep>
   <time name="dav">   23.79   23.82</time>
   <time name="total">   24.39   24.43</time>
   <energy>
    <i name="e_fr_energy">   -331.70218177 </i>
    <i name="e_wo_entrp">   -331.69340550 </i>
    <i name="e_0_energy">   -331.69925635 </i>
   </energy>
  </scstep>
  <scstep>
   <time name="dav">   24.24   24.27</time>
   <time name="total">   24.86   24.90</time>
   <energy>
    <i name="e_fr_energy">   -331.70225489 </i>
    <i name="e_wo_entrp">   -331.69351614 </i>
    <i name="e_0_energy">   -331.69934197 </i>
   </energy>
  </scstep>
  <scstep>
   <time name="dav">   19.76   19.78</time>
   <time name="total">   19.79   19.81</time>
   <energy>
    <i name="alphaZ">   1312.03732707 </i>
    <i name="ewald"> -11675.10731537 </i>
    <i name="hartreedc">  -2891.32315454 </i>
    <i name="XCdc">   -837.90150262 </i>
    <i name="pawpsdc">  21428.94112789 </i>
    <i name="pawaedc"> -19936.72834213 </i>
    <i name="eentropy">     -0.00874460 </i>
    <i name="bandstr">   -725.17341521 </i>
    <i name="atom">  12993.56182891 </i>
    <i name="e_fr_energy">   -331.70219060 </i>
    <i name="e_wo_entrp">   -331.69344601 </i>
    <i name="e_0_energy">   -331.69927574 </i>
   </energy>
  </scstep>
  <structure>
   <crystal>
    <varray name="basis" >
     <v>      -3.19028636      -3.15508431      -3.16675287 </v>
     <v>       1.56610226       1.61189777      -7.92219616 </v>
     <v>       7.97430181      -7.93824167      -1.53142591 </v>
    </varray>
    <i name="volume">    480.33318491 </i>
    <varray name="rec_basis" >
     <v>      -0.13606557      -0.12652803      -0.05264233 </v>
     <v>       0.04227622       0.06274463      -0.10510383 </v>
     <v>       0.06266417      -0.06294284      -0.00041894 </v>
    </varray>
   </crystal>
   <varray name="positions" >
    <v>       0.95863847       0.93162075       0.39649283 </v>
    <v>       0.63171727       0.26785248       0.40180703 </v>
    <v>       0.49710966       0.00432162      -0.00031076 </v>
    <v>      -0.00153817       0.00206404       0.00227608 </v>
    <v>       0.09605376       0.20660760       0.79759828 </v>
    <v>       0.03704635       0.07018234       0.59536669 </v>
    <v>       0.90238932       0.79766905       0.20392839 </v>
    <v>       0.80486675       0.59050925       0.39800630 </v>
    <v>       0.73443628       0.46684222       0.20028698 </v>
    <v>       0.66323108       0.33901398      -0.00034772 </v>
    <v>       0.36948354       0.72955716       0.59970286 </v>
    <v>       0.83482604       0.66231166       0.00298969 </v>
    <v>       0.92946974       0.86912097       0.80011218 </v>
    <v>       0.56983309       0.13483959       0.19572673 </v>
    <v>       0.40552921       0.79344603       0.19933123 </v>
    <v>       0.43753691       0.85888972       0.79622778 </v>
    <v>       0.30117781       0.60244706       0.40226215 </v>
    <v>       0.86083695       0.73416376       0.59810325 </v>
    <v>       0.46856706       0.93223609       0.40614132 </v>
    <v>       0.17030501       0.33377881       0.00253014 </v>
    <v>       0.26906865       0.53465500       0.79931205 </v>
    <v>       0.20117367       0.39363075       0.59597926 </v>
    <v>       0.06257120       0.14249928       0.20386589 </v>
    <v>       0.77069515       0.52723303       0.79947951 </v>
    <v>       0.69011860       0.41006765       0.60246857 </v>
    <v>       0.59644027       0.20252217       0.79696786 </v>
    <v>       0.54005059       0.06831540       0.60305549 </v>
    <v>       0.33574426       0.65773256       0.00095567 </v>
    <v>       0.22928815       0.46920330       0.19968426 </v>
   </varray>
  </structure>
  <varray name="forces" >
   <v>       0.00104566       0.19485046       0.07235065 </v>
   <v>       0.10396058       0.08459980       0.06630083 </v>
   <v>      -0.24034267       0.08730793       0.21454074 </v>
   <v>       0.03207413      -0.03544453      -0.04333628 </v>
   <v>      -0.09813362      -0.01999238       0.12222061 </v>
   <v>      -0.28436140       0.19717952      -0.25286890 </v>
   <v>      -0.09459606       0.03034164       0.03769424 </v>
   <v>      -0.16579401      -0.23357501       0.20873075 </v>
   <v>       0.06154809      -0.13848320       0.08232731 </v>
   <v>      -0.13664825       0.02772572      -0.01997800 </v>
   <v>       0.03359222       0.04766837       0.00017209 </v>
   <v>       0.09428024       0.06888459      -0.18518666 </v>
   <v>       0.00431844      -0.01464115      -0.08092546 </v>
   <v>       0.07115585      -0.00304064      -0.04578388 </v>
   <v>       0.05842881      -0.06651355      -0.11023426 </v>
   <v>       0.15329055      -0.01039631       0.02777660 </v>
   <v>      -0.02656081      -0.08849352       0.03871252 </v>
   <v>      -0.08018441       0.08547899       0.11465829 </v>
   <v>       0.18918293      -0.11975881       0.01307549 </v>
   <v>       0.00134376      -0.07353978      -0.04308005 </v>
   <v>      -0.09837188       0.07198063       0.09126772 </v>
   <v>      -0.21640962       0.37334296       0.33452796 </v>
   <v>       0.41451805      -0.28430455      -0.48057392 </v>
   <v>       0.04764164      -0.05471924      -0.16174031 </v>
   <v>       0.07426177       0.05794769       0.03783338 </v>
   <v>       0.01551328      -0.00290172      -0.00183879 </v>
   <v>      -0.04558448      -0.09822891      -0.04687044 </v>
   <v>       0.01288113       0.07605977      -0.06673041 </v>
   <v>       0.11795011      -0.15933477       0.07695816 </v>
  </varray>
  <varray name="stress" >
   <v>      10.62214442      -0.17912464       0.29119070 </v>
   <v>      -0.17912464      10.82882285      -0.48323978 </v>
   <v>       0.29119059      -0.48323987      12.14749148 </v>
  </varray>
  <energy>
   <i name="e_fr_energy">   -331.70219060 </i>
   <i name="e_wo_entrp">   -331.69927574 </i>
   <i name="e_0_energy">     -0.00874460 </i>
  </energy>
  <time name="totalsc">  335.39  336.34</time>
 </calculation>
 <calculation>
  <scstep>
   <time name="dav">   18.24   18.27</time>
   <time name="total">   18.85   18.89</time>
   <energy>
    <i name="alphaZ">   1305.00221019 </i>
    <i name="ewald"> -11664.73103473 </i>
    <i name="hartreedc">  -2875.52945581 </i>
    <i name="XCdc">   -838.62626222 </i>
    <i name="pawpsdc">  21428.94746834 </i>
    <i name="pawaedc"> -19936.78028734 </i>
    <i name="eentropy">     -0.00635160 </i>
    <i name="bandstr">   -743.55304624 </i>
    <i name="atom">  12993.56182891 </i>
    <i name="e_fr_energy">   -331.71493051 </i>
    <i name="e_wo_entrp">   -331.70857891 </i>
    <i name="e_0_energy">   -331.71281331 </i>
   </energy>
  </scstep>
  <scstep>
   <time name="dav">   24.23   24.27</time>
   <time name="total">   24.84   24.87</time>
   <energy>
    <i name="e_fr_energy">   -331.74862950 </i>
    <i name="e_wo_entrp">   -331.74018330 </i>
    <i name="e_0_energy">   -331.74581410 </i>
   </energy>
  </scstep>
  <scstep>
   <time name="dav">   24.77   24.81</time>
   <time name="total">   25.38   25.42</time>
   <energy>
    <i name="e_fr_energy">   -331.74771724 </i>
    <i name="e_wo_entrp">   -331.74275262 </i>
    <i name="e_0_energy">   -331.74606237 </i>
   </energy>
  </scstep>
  <scstep>
   <time name="dav">   24.52   24.55</time>
   <time name="total">   25.13   25.17</time>
   <energy>
    <i name="e_fr_energy">   -331.73258238 </i>
    <i name="e_wo_entrp">   -331.72571529 </i>
    <i name="e_0_energy">   -331.73029335 </i>
   </energy>
  </scstep>
  <scstep>
   <time name="dav">   25.21   25.24</time>
   <time name="total">   25.81   25.85</time>
   <energy>
    <i name="e_fr_energy">   -331.72969781 </i>
    <i name="e_wo_entrp">   -331.72290561 </i>
    <i name="e_0_energy">   -331.72743374 </i>
   </energy>
  </scstep>
  <scstep>
   <time name="dav">   25.83   25.86</time>
   <time name="total">   26.44   26.47</time>
   <energy>
    <i name="e_fr_energy">   -331.72840420 </i>
    <i name="e_wo_entrp">   -331.72168661 </i>
    <i name="e_0_energy">   -331.72616501 </i>
   </energy>
  </scstep>
  <scstep>
   <time name="dav">   26.85   26.88</time>
   <time name="total">   27.46   27.50</time>
   <energy>
    <i name="e_fr_energy">   -331.72786075 </i>
    <i name="e_wo_entrp">   -331.72125402 </i>
    <i name="e_0_energy">   -331.72565851 </i>
   </energy>
  </scstep>
  <scstep>
   <time name="dav">   23.29   23.32</time>
   <time name="total">   23.90   23.93</time>
   <energy>
    <i name="e_fr_energy">   -331.72764564 </i>
    <i name="e_wo_entrp">   -331.72085264 </i>
    <i name="e_0_energy">   -331.72538131 </i>
   </energy>
  </scstep>
  <scstep>
   <time name="dav">   21.23   21.26</time>
   <time name="total">   21.84   21.86</time>
   <energy>
    <i name="e_fr_energy">   -331.72763765 </i>
    <i name="e_wo_entrp">   -331.72097620 </i>
    <i name="e_0_energy">   -331.72541717 </i>
   </energy>
  </scstep>
  <scstep>
   <time name="dav">   17.17   17.19</time>
   <time name="total">   17.20   17.23</time>
   <energy>
    <i name="alphaZ">   1305.00221019 </i>
    <i name="ewald"> -11664.73103473 </i>
    <i name="hartreedc">  -2884.77155423 </i>
    <i name="XCdc">   -838.33057862 </i>
    <i name="pawpsdc">  21260.50227938 </i>
    <i name="pawaedc"> -19768.15056841 </i>
    <i name="eentropy">     -0.00667845 </i>
    <i name="bandstr">   -734.80355797 </i>
    <i name="atom">  12993.56182891 </i>
    <i name="e_fr_energy">   -331.72765394 </i>
    <i name="e_wo_entrp">   -331.72097548 </i>
    <i name="e_0_energy">   -331.72542779 </i>
   </energy>
  </scstep>
  <structure>
   <crystal>
    <varray name="basis" >
     <v>      -3.19870420      -3.15694626      -3.17089222 </v>
     <v>       1.56486606       1.61928109      -7.93355145 </v>
     <v>       7.99500409      -7.95230102      -1.52374644 </v>
    </varray>
    <i name="volume">    482.92260589 </i>
    <varray name="rec_basis" >
     <v>      -0.13575128      -0.12640600      -0.05257663 </v>
     <v>       0.04225419       0.06258831      -0.10493784 </v>
     <v>       0.06249523      -0.06282395      -0.00049574 </v>
    </varray>
   </crystal>
   <varray name="positions" >
    <v>       0.95705445       0.93135321       0.39579080 </v>
    <v>       0.63132473       0.26807447       0.40214072 </v>
    <v>       0.49656128       0.00505028      -0.00043015 </v>
    <v>      -0.00179282       0.00248451       0.00270674 </v>
    <v>       0.09535146       0.20778546       0.79714449 </v>
    <v>       0.03786109       0.07096579       0.59436132 </v>
    <v>       0.90284706       0.79722945       0.20464139 </v>
    <v>       0.80597875       0.58853637       0.39765282 </v>
    <v>       0.73472878       0.46676971       0.20040238 </v>
    <v>       0.66264333       0.34007206      -0.00043770 </v>
    <v>       0.36999338       0.72884137       0.59964254 </v>
    <v>       0.83509923       0.66158051       0.00354927 </v>
    <v>       0.92882818       0.86957086       0.80013275 </v>
    <v>       0.57032678       0.13513109       0.19499020 </v>
    <v>       0.40656226       0.79230636       0.19925022 </v>
    <v>       0.43819292       0.85746374       0.79556664 </v>
    <v>       0.30141710       0.60283143       0.40273015 </v>
    <v>       0.85973061       0.73428505       0.59770375 </v>
    <v>       0.46884675       0.93208859       0.40735313 </v>
    <v>       0.17102634       0.33384881       0.00301520 </v>
    <v>       0.26949953       0.53486654       0.79914704 </v>
    <v>       0.20125312       0.39237689       0.59508259 </v>
    <v>       0.06184581       0.14439214       0.20474322 </v>
    <v>       0.77152162       0.52612627       0.79938477 </v>
    <v>       0.68823756       0.41198500       0.60291083 </v>
    <v>       0.59572693       0.20302368       0.79640873 </v>
    <v>       0.54133226       0.06862426       0.60360615 </v>
    <v>       0.33616820       0.65609303       0.00109272 </v>
    <v>       0.22849999       0.46957640       0.19971729 </v>
   </varray>
  </structure>
  <varray name="forces" >
   <v>       0.02569461       0.09939706      -0.00628157 </v>
   <v>       0.07383482       0.11549245       0.08947777 </v>
   <v>      -0.33313428       0.05265386       0.30675948 </v>
   <v>      -0.00899604      -0.01677301      -0.00726280 </v>
   <v>      -0.13457384      -0.11630931       0.23158574 </v>
   <v>      -0.21124475       0.14662814      -0.20189842 </v>
   <v>      -0.17624657       0.13770405       0.04242497 </v>
   <v>      -0.07115272      -0.21957973       0.07934445 </v>
   <v>       0.08386616      -0.12117640       0.09541935 </v>
   <v>      -0.20744987      -0.02081266       0.05927577 </v>
   <v>       0.09430325       0.09766367      -0.06842340 </v>
   <v>       0.09280851       0.15370819      -0.27879392 </v>
   <v>      -0.02367534      -0.04640195      -0.09347685 </v>
   <v>       0.14072169      -0.05480597      -0.03694322 </v>
   <v>       0.10777618      -0.02354606      -0.17930806 </v>
   <v>       0.31237786      -0.03300349      -0.06755036 </v>
   <v>      -0.08162793      -0.04235321       0.11172647 </v>
   <v>      -0.10638133       0.01475939       0.09517816 </v>
   <v>       0.11561803      -0.02355983       0.04741914 </v>
   <v>      -0.01901975      -0.00698435      -0.00152033 </v>
   <v>      -0.08570011       0.08177563       0.14806641 </v>
   <v>      -0.14334853       0.38733177       0.26384696 </v>
   <v>       0.35480383      -0.32081823      -0.41947293 </v>
   <v>       0.14509855      -0.01227054      -0.28851110 </v>
   <v>      -0.06384890      -0.00916963       0.19501115 </v>
   <v>       0.03269814      -0.10677447       0.00962653 </v>
   <v>      -0.06709966      -0.04015637       0.02906443 </v>
   <v>       0.06545941       0.14916161      -0.23378657 </v>
   <v>       0.08843856      -0.22178059       0.07900275 </v>
  </varray>
  <varray name="stress" >
   <v>      -0.09292451       0.10620611      -0.37660798 </v>
   <v>       0.10620624       1.23308264       0.20109693 </v>
   <v>      -0.37660801       0.20109685       3.13598170 </v>
  </varray>
  <energy>
   <i name="e_fr_energy">   -331.72765394 </i>
   <i name="e_wo_entrp">   -331.72542779 </i>
   <i name="e_0_energy">     -0.00667845 </i>
  </energy>
  <time name="totalsc">  254.37  254.74</time>
 </calculation>
 <calculation>
  <scstep>
   <time name="dav">   18.89   18.91</time>
   <time name="total">   19.50   19.54</time>
   <energy>
    <i name="alphaZ">   1302.78694280 </i>
    <i name="ewald"> -11657.02304725 </i>
    <i name="hartreedc">  -2884.36469255 </i>
    <i name="XCdc">   -838.55279325 </i>
    <i name="pawpsdc">  21257.81723736 </i>
    <i name="pawaedc"> -19765.66543647 </i>
    <i name="eentropy">     -0.00549790 </i>
    <i name="bandstr">   -740.31467556 </i>
    <i name="atom">  12993.56182891 </i>
    <i name="e_fr_energy">   -331.76013391 </i>
    <i name="e_wo_entrp">   -331.75463601 </i>
    <i name="e_0_energy">   -331.75830128 </i>
   </energy>
  </scstep>
  <scstep>
   <time name="dav">   25.36   25.39</time>
   <time name="total">   25.97   26.00</time>
   <energy>
    <i name="e_fr_energy">   -331.78086017 </i>
    <i name="e_wo_entrp">   -331.77417977 </i>
    <i name="e_0_energy">   -331.77863337 </i>
   </energy>
  </scstep>
  <scstep>
   <time name="dav">   24.63   24.67</time>
   <time name="total">   25.24   25.29</time>
   <energy>
    <i name="e_fr_energy">   -331.77379321 </i>
    <i name="e_wo_entrp">   -331.76788669 </i>
    <i name="e_0_energy">   -331.77182437 </i>
   </energy>
  </scstep>
  <scstep>
   <time name="dav">   24.82   24.85</time>
   <time name="total">   25.43   25.46</time>
   <energy>
    <i name="e_fr_energy">   -331.77257768 </i>
    <i name="e_wo_entrp">   -331.76675698 </i>
    <i name="e_0_energy">   -331.77063745 </i>
   </energy>
  </scstep>
  <scstep>
   <time name="dav">   24.65   24.69</time>
   <time name="total">   25.26   25.30</time>
   <energy>
    <i name="e_fr_energy">   -331.77175509 </i>
    <i name="e_wo_entrp">   -331.76579990 </i>
    <i name="e_0_energy">   -331.76977003 </i>
   </energy>
  </scstep>
  <scstep>
   <time name="dav">   25.55   25.61</time>
   <time name="total">   26.16   26.23</time>
   <energy>
    <i name="e_fr_energy">   -331.77207149 </i>
    <i name="e_wo_entrp">   -331.76586863 </i>
    <i name="e_0_energy">   -331.77000387 </i>
   </energy>
  </scstep>
  <scstep>
   <time name="dav">   25.12   25.18</time>
   <time name="total">   25.73   25.79</time>
   <energy>
    <i name="e_fr_energy">   -331.77141774 </i>
    <i name="e_wo_entrp">   -331.76553011 </i>
    <i name="e_0_energy">   -331.76945520 </i>
   </energy>
  </scstep>
  <scstep>
   <time name="dav">   16.75   16.79</time>
   <time name="total">   16.80   16.84</time>
   <energy>
    <i name="alphaZ">   1302.78694280 </i>
    <i name="ewald"> -11657.02304725 </i>
    <i name="hartreedc">  -2887.43752480 </i>
    <i name="XCdc">   -838.46256137 </i>
    <i name="pawpsdc">  21188.34509981 </i>
    <i name="pawaedc"> -19696.09649100 </i>
    <i name="eentropy">     -0.00593985 </i>
    <i name="bandstr">   -737.43965301 </i>
    <i name="atom">  12993.56182891 </i>
    <i name="e_fr_energy">   -331.77134575 </i>
    <i name="e_wo_entrp">   -331.76540591 </i>
    <i name="e_0_energy">   -331.76936580 </i>
   </energy>
  </scstep>
  <structure>
   <crystal>
    <varray name="basis" >
     <v>      -3.19930713      -3.15842205      -3.17379724 </v>
     <v>       1.56552089       1.62022513      -7.94136907 </v>
     <v>       7.99696865      -7.95624457      -1.52537894 </v>
    </varray>
    <i name="volume">    483.74377062 </i>
    <varray name="rec_basis" >
     <v>      -0.13572254      -0.12634554      -0.05253309 </v>
     <v>       0.04224078       0.06255566      -0.10483292 </v>
     <v>       0.06248031      -0.06279259      -0.00049411 </v>
    </varray>
   </crystal>
   <varray name="positions" >
    <v>       0.95648862       0.93152576       0.39559893 </v>
    <v>       0.63054254       0.26812236       0.40210844 </v>
    <v>       0.49706938       0.00404299      -0.00105583 </v>
    <v>      -0.00172588       0.00251249       0.00276511 </v>
    <v>       0.09580159       0.20696999       0.79706546 </v>
    <v>       0.03847183       0.07159043       0.59369098 </v>
    <v>       0.90300420       0.79709985       0.20422027 </v>
    <v>       0.80693646       0.58769303       0.39785014 </v>
    <v>       0.73473258       0.46640718       0.20073802 </v>
    <v>       0.66327946       0.33977355      -0.00074230 </v>
    <v>       0.36950361       0.72920132       0.59963084 </v>
    <v>       0.83468985       0.66258320       0.00351495 </v>
[...]
       <r>    4.5732    1.0000 </r>
       <r>    4.6392    1.0000 </r>
       <r>    4.7235    1.0000 </r>
       <r>    4.7580    1.0000 </r>
       <r>    4.7825    1.0000 </r>
       <r>    4.8788    1.0000 </r>
       <r>    4.9394    1.0000 </r>
       <r>    4.9668    1.0000 </r>
       <r>    5.0415    1.0000 </r>
       <r>    5.0963    1.0000 </r>
       <r>    5.1726    1.0000 </r>
       <r>    5.2090    1.0000 </r>
       <r>    5.2589    1.0000 </r>
       <r>    5.3296    1.0000 </r>
       <r>    5.3964    1.0000 </r>
       <r>    5.4291    1.0000 </r>
       <r>    5.4980    1.0000 </r>
       <r>    5.5077    1.0000 </r>
       <r>    5.5888    1.0000 </r>
       <r>    5.6571    1.0000 </r>
       <r>    5.7242    1.0000 </r>
       <r>    5.7726    1.0000 </r>
       <r>    5.8331    1.0000 </r>
       <r>    5.8697    1.0000 </r>
       <r>    5.9447    1.0000 </r>
       <r>    6.0105    1.0000 </r>
       <r>    6.0156    1.0000 </r>
       <r>    6.0323    1.0000 </r>
       <r>    6.1173    1.0000 </r>
       <r>    6.1674    1.0002 </r>
       <r>    6.2015    1.0004 </r>
       <r>    6.2707    1.0019 </r>
       <r>    6.3426    1.0072 </r>
       <r>    6.3688    1.0109 </r>
       <r>    6.4458    1.0270 </r>
       <r>    6.5098    1.0353 </r>
       <r>    6.5488    1.0252 </r>
       <r>    6.6530    0.8584 </r>
       <r>    6.7361    0.5538 </r>
       <r>    6.7649    0.4321 </r>
       <r>    6.7981    0.2985 </r>
       <r>    6.8968    0.0269 </r>
       <r>    6.9789   -0.0345 </r>
       <r>    7.0790   -0.0207 </r>
       <r>    7.1462   -0.0083 </r>
       <r>    7.2103   -0.0026 </r>
       <r>    7.4105   -0.0000 </r>
       <r>    7.5916   -0.0000 </r>
       <r>    7.6946   -0.0000 </r>
       <r>    7.8048   -0.0000 </r>
       <r>    7.9129   -0.0000 </r>
       <r>    8.0649   -0.0000 </r>
       <r>    8.1686   -0.0000 </r>
       <r>    8.2858   -0.0000 </r>
       <r>    8.5331   -0.0000 </r>
       <r>    8.6199   -0.0000 </r>
       <r>    8.7046   -0.0000 </r>
       <r>    8.7847   -0.0000 </r>
       <r>    8.8484   -0.0000 </r>
       <r>    8.8850   -0.0000 </r>
       <r>    8.9632   -0.0000 </r>
      </set>
     </set>
    </set>
   </array>
  </eigenvalues>
  <separator name="orbital magnetization" >
   <v name="MAGDIPOLOUT">      0.00000000      0.00000000      0.00000000</v>
  </separator>
  <dos>
   <i name="efermi">      6.74883069 </i>
   <total>
    <array>
     <dimension dim="1">gridpoints</dimension>
     <dimension dim="2">spin</dimension>
     <field>energy</field>
     <field>total</field>
     <field>integrated</field>
     <set>
      <set comment="spin 1">
       <r>   -50.2938     0.0000     0.0000 </r>
       <r>   -50.0863     0.0000     0.0000 </r>
       <r>   -49.8788     0.0000     0.0000 </r>
       <r>   -49.6712     0.0000     0.0000 </r>
       <r>   -49.4637     0.0000     0.0000 </r>
       <r>   -49.2562    -0.0000    -0.0000 </r>
       <r>   -49.0486    -0.0000    -0.0000 </r>
       <r>   -48.8411    -0.0000    -0.0000 </r>
       <r>   -48.6335    -0.0000    -0.0000 </r>
       <r>   -48.4260    -0.0000    -0.0000 </r>
       <r>   -48.2185    -0.0000    -0.0000 </r>
       <r>   -48.0109    -0.0054    -0.0011 </r>
       <r>   -47.8034    -0.3370    -0.0711 </r>
       <r>   -47.5959     0.3640     0.0045 </r>
       <r>   -47.3883    18.2231     3.7865 </r>
       <r>   -47.1808    22.3392     8.4227 </r>
       <r>   -46.9732    15.5794    11.6560 </r>
       <r>   -46.7657     2.1061    12.0931 </r>
       <r>   -46.5582    -0.4333    12.0032 </r>
       <r>   -46.3506    -0.0153    12.0000 </r>
       <r>   -46.1431    -0.0000    12.0000 </r>
       <r>   -45.9356    -0.0000    12.0000 </r>
       <r>   -45.7280    -0.0000    12.0000 </r>
       <r>   -45.5205     0.0000    12.0000 </r>
       <r>   -45.3129     0.0000    12.0000 </r>
       <r>   -45.1054     0.0000    12.0000 </r>
       <r>   -44.8979     0.0000    12.0000 </r>
       <r>   -44.6903     0.0000    12.0000 </r>
       <r>   -44.4828     0.0000    12.0000 </r>
       <r>   -44.2752     0.0000    12.0000 </r>
       <r>   -44.0677     0.0000    12.0000 </r>
       <r>   -43.8602     0.0000    12.0000 </r>
       <r>   -43.6526     0.0000    12.0000 </r>
       <r>   -43.4451     0.0000    12.0000 </r>
       <r>   -43.2376     0.0000    12.0000 </r>
       <r>   -43.0300     0.0000    12.0000 </r>
       <r>   -42.8225     0.0000    12.0000 </r>
       <r>   -42.6149     0.0000    12.0000 </r>
       <r>   -42.4074     0.0000    12.0000 </r>
       <r>   -42.1999     0.0000    12.0000 </r>
       <r>   -41.9923     0.0000    12.0000 </r>
       <r>   -41.7848     0.0000    12.0000 </r>
       <r>   -41.5773     0.0000    12.0000 </r>
       <r>   -41.3697     0.0000    12.0000 </r>
       <r>   -41.1622     0.0000    12.0000 </r>
       <r>   -40.9546     0.0000    12.0000 </r>
       <r>   -40.7471     0.0000    12.0000 </r>
       <r>   -40.5396     0.0000    12.0000 </r>
       <r>   -40.3320     0.0000    12.0000 </r>
       <r>   -40.1245     0.0000    12.0000 </r>
       <r>   -39.9170     0.0000    12.0000 </r>
       <r>   -39.7094     0.0000    12.0000 </r>
       <r>   -39.5019     0.0000    12.0000 </r>
       <r>   -39.2943     0.0000    12.0000 </r>
       <r>   -39.0868     0.0000    12.0000 </r>
       <r>   -38.8793     0.0000    12.0000 </r>
       <r>   -38.6717     0.0000    12.0000 </r>
       <r>   -38.4642     0.0000    12.0000 </r>
       <r>   -38.2566     0.0000    12.0000 </r>
       <r>   -38.0491     0.0000    12.0000 </r>
       <r>   -37.8416     0.0000    12.0000 </r>
       <r>   -37.6340     0.0000    12.0000 </r>
       <r>   -37.4265     0.0000    12.0000 </r>
       <r>   -37.2190     0.0000    12.0000 </r>
       <r>   -37.0114     0.0000    12.0000 </r>
       <r>   -36.8039     0.0000    12.0000 </r>
       <r>   -36.5963     0.0000    12.0000 </r>
       <r>   -36.3888     0.0000    12.0000 </r>
       <r>   -36.1813     0.0000    12.0000 </r>
       <r>   -35.9737     0.0000    12.0000 </r>
       <r>   -35.7662     0.0000    12.0000 </r>
       <r>   -35.5587     0.0000    12.0000 </r>
       <r>   -35.3511     0.0000    12.0000 </r>
       <r>   -35.1436     0.0000    12.0000 </r>
       <r>   -34.9360     0.0000    12.0000 </r>
       <r>   -34.7285     0.0000    12.0000 </r>
       <r>   -34.5210     0.0000    12.0000 </r>
       <r>   -34.3134     0.0000    12.0000 </r>
       <r>   -34.1059     0.0000    12.0000 </r>
       <r>   -33.8984     0.0000    12.0000 </r>
       <r>   -33.6908     0.0000    12.0000 </r>
       <r>   -33.4833     0.0000    12.0000 </r>
       <r>   -33.2757     0.0000    12.0000 </r>
       <r>   -33.0682     0.0000    12.0000 </r>
       <r>   -32.8607     0.0000    12.0000 </r>
       <r>   -32.6531     0.0000    12.0000 </r>
       <r>   -32.4456     0.0000    12.0000 </r>
       <r>   -32.2380     0.0000    12.0000 </r>
       <r>   -32.0305     0.0000    12.0000 </r>
       <r>   -31.8230     0.0000    12.0000 </r>
       <r>   -31.6154     0.0000    12.0000 </r>
       <r>   -31.4079     0.0000    12.0000 </r>
       <r>   -31.2004     0.0000    12.0000 </r>
       <r>   -30.9928     0.0000    12.0000 </r>
       <r>   -30.7853     0.0000    12.0000 </r>
       <r>   -30.5777     0.0000    12.0000 </r>
       <r>   -30.3702     0.0000    12.0000 </r>
       <r>   -30.1627     0.0000    12.0000 </r>
       <r>   -29.9551     0.0000    12.0000 </r>
       <r>   -29.7476     0.0000    12.0000 </r>
       <r>   -29.5401     0.0000    12.0000 </r>
       <r>   -29.3325     0.0000    12.0000 </r>
       <r>   -29.1250     0.0000    12.0000 </r>
       <r>   -28.9174     0.0000    12.0000 </r>
       <r>   -28.7099     0.0000    12.0000 </r>
       <r>   -28.5024     0.0000    12.0000 </r>
       <r>   -28.2948     0.0000    12.0000 </r>
       <r>   -28.0873     0.0000    12.0000 </r>
       <r>   -27.8798     0.0000    12.0000 </r>
       <r>   -27.6722     0.0000    12.0000 </r>
       <r>   -27.4647     0.0000    12.0000 </r>
       <r>   -27.2571     0.0000    12.0000 </r>
       <r>   -27.0496     0.0000    12.0000 </r>
       <r>   -26.8421     0.0000    12.0000 </r>
       <r>   -26.6345     0.0000    12.0000 </r>
       <r>   -26.4270     0.0000    12.0000 </r>
       <r>   -26.2194     0.0000    12.0000 </r>
       <r>   -26.0119     0.0000    12.0000 </r>
       <r>   -25.8044    -0.0000    12.0000 </r>
       <r>   -25.5968    -0.0000    12.0000 </r>
       <r>   -25.3893    -0.0000    12.0000 </r>
       <r>   -25.1818    -0.0000    12.0000 </r>
       <r>   -24.9742    -0.0000    12.0000 </r>
       <r>   -24.7667    -0.0000    12.0000 </r>
       <r>   -24.5591    -0.0037    11.9992 </r>
       <r>   -24.3516    -0.1662    11.9647 </r>
       <r>   -24.1441     0.1090    11.9873 </r>
       <r>   -23.9365     8.2428    13.6980 </r>
       <r>   -23.7290    20.5197    17.9567 </r>
       <r>   -23.5215    43.9918    27.0866 </r>
       <r>   -23.3139    42.6274    35.9334 </r>
       <r>   -23.1064    39.2620    44.0818 </r>
       <r>   -22.8988    14.8925    47.1725 </r>
       <r>   -22.6913     3.5811    47.9158 </r>
       <r>   -22.4838     0.5236    48.0244 </r>
       <r>   -22.2762    -0.1114    48.0013 </r>
       <r>   -22.0687    -0.0062    48.0000 </r>
       <r>   -21.8612    -0.0000    48.0000 </r>
       <r>   -21.6536    -0.0000    48.0000 </r>
       <r>   -21.4461    -0.0000    48.0000 </r>
       <r>   -21.2385     0.0000    48.0000 </r>
       <r>   -21.0310     0.0000    48.0000 </r>
       <r>   -20.8235     0.0000    48.0000 </r>
       <r>   -20.6159     0.0000    48.0000 </r>
       <r>   -20.4084     0.0000    48.0000 </r>
       <r>   -20.2008     0.0000    48.0000 </r>
       <r>   -19.9933     0.0000    48.0000 </r>
       <r>   -19.7858     0.0000    48.0000 </r>
       <r>   -19.5782     0.0000    48.0000 </r>
       <r>   -19.3707     0.0000    48.0000 </r>
       <r>   -19.1632     0.0000    48.0000 </r>
       <r>   -18.9556     0.0000    48.0000 </r>
       <r>   -18.7481     0.0000    48.0000 </r>
       <r>   -18.5405     0.0000    48.0000 </r>
       <r>   -18.3330     0.0000    48.0000 </r>
       <r>   -18.1255     0.0000    48.0000 </r>
       <r>   -17.9179     0.0000    48.0000 </r>
       <r>   -17.7104     0.0000    48.0000 </r>
       <r>   -17.5029     0.0000    48.0000 </r>
       <r>   -17.2953     0.0000    48.0000 </r>
       <r>   -17.0878     0.0000    48.0000 </r>
       <r>   -16.8802     0.0000    48.0000 </r>
       <r>   -16.6727     0.0000    48.0000 </r>
       <r>   -16.4652     0.0000    48.0000 </r>
       <r>   -16.2576     0.0000    48.0000 </r>
       <r>   -16.0501     0.0000    48.0000 </r>
       <r>   -15.8425     0.0000    48.0000 </r>
       <r>   -15.6350     0.0000    48.0000 </r>
       <r>   -15.4275     0.0000    48.0000 </r>
       <r>   -15.2199     0.0000    48.0000 </r>
       <r>   -15.0124     0.0000    48.0000 </r>
       <r>   -14.8049     0.0000    48.0000 </r>
       <r>   -14.5973     0.0000    48.0000 </r>
       <r>   -14.3898     0.0000    48.0000 </r>
       <r>   -14.1822     0.0000    48.0000 </r>
       <r>   -13.9747     0.0000    48.0000 </r>
       <r>   -13.7672     0.0000    48.0000 </r>
       <r>   -13.5596     0.0000    48.0000 </r>
       <r>   -13.3521     0.0000    48.0000 </r>
       <r>   -13.1446     0.0000    48.0000 </r>
       <r>   -12.9370     0.0000    48.0000 </r>
       <r>   -12.7295     0.0000    48.0000 </r>
       <r>   -12.5219     0.0000    48.0000 </r>
       <r>   -12.3144     0.0000    48.0000 </r>
       <r>   -12.1069     0.0000    48.0000 </r>
       <r>   -11.8993     0.0000    48.0000 </r>
       <r>   -11.6918     0.0000    48.0000 </r>
       <r>   -11.4843     0.0000    48.0000 </r>
       <r>   -11.2767     0.0000    48.0000 </r>
       <r>   -11.0692     0.0000    48.0000 </r>
       <r>   -10.8616     0.0000    48.0000 </r>
       <r>   -10.6541     0.0000    48.0000 </r>
       <r>   -10.4466     0.0000    48.0000 </r>
       <r>   -10.2390     0.0000    48.0000 </r>
       <r>   -10.0315     0.0000    48.0000 </r>
       <r>    -9.8239     0.0000    48.0000 </r>
       <r>    -9.6164     0.0000    48.0000 </r>
       <r>    -9.4089     0.0000    48.0000 </r>
       <r>    -9.2013     0.0000    48.0000 </r>
       <r>    -8.9938     0.0000    48.0000 </r>
       <r>    -8.7863     0.0000    48.0000 </r>
       <r>    -8.5787     0.0000    48.0000 </r>
       <r>    -8.3712     0.0000    48.0000 </r>
       <r>    -8.1636     0.0000    48.0000 </r>
       <r>    -7.9561     0.0000    48.0000 </r>
       <r>    -7.7486     0.0000    48.0000 </r>
       <r>    -7.5410     0.0000    48.0000 </r>
       <r>    -7.3335     0.0000    48.0000 </r>
       <r>    -7.1260     0.0000    48.0000 </r>
       <r>    -6.9184     0.0000    48.0000 </r>
       <r>    -6.7109     0.0000    48.0000 </r>
       <r>    -6.5033     0.0000    48.0000 </r>
       <r>    -6.2958     0.0000    48.0000 </r>
       <r>    -6.0883     0.0000    48.0000 </r>
       <r>    -5.8807     0.0000    48.0000 </r>
       <r>    -5.6732     0.0000    48.0000 </r>
       <r>    -5.4657     0.0000    48.0000 </r>
       <r>    -5.2581     0.0000    48.0000 </r>
       <r>    -5.0506     0.0000    48.0000 </r>
       <r>    -4.8430     0.0000    48.0000 </r>
       <r>    -4.6355     0.0000    48.0000 </r>
       <r>    -4.4280     0.0000    48.0000 </r>
       <r>    -4.2204     0.0000    48.0000 </r>
       <r>    -4.0129     0.0000    48.0000 </r>
       <r>    -3.8053     0.0000    48.0000 </r>
       <r>    -3.5978     0.0000    48.0000 </r>
       <r>    -3.3903     0.0000    48.0000 </r>
       <r>    -3.1827     0.0000    48.0000 </r>
       <r>    -2.9752     0.0000    48.0000 </r>
       <r>    -2.7677     0.0000    48.0000 </r>
       <r>    -2.5601     0.0000    48.0000 </r>
       <r>    -2.3526    -0.0000    48.0000 </r>
       <r>    -2.1450    -0.0000    48.0000 </r>
       <r>    -1.9375    -0.0000    48.0000 </r>
       <r>    -1.7300    -0.0000    48.0000 </r>
       <r>    -1.5224    -0.0000    48.0000 </r>
       <r>    -1.3149    -0.0000    48.0000 </r>
       <r>    -1.1074    -0.0003    47.9999 </r>
       <r>    -0.8998    -0.0087    47.9981 </r>
       <r>    -0.6923     0.0178    48.0018 </r>
       <r>    -0.4847     0.3990    48.0846 </r>
       <r>    -0.2772     1.0742    48.3076 </r>
       <r>    -0.0697     1.6913    48.6586 </r>
       <r>     0.1379     1.6910    49.0095 </r>
       <r>     0.3454     1.2925    49.2778 </r>
       <r>     0.5529     2.6873    49.8355 </r>
       <r>     0.7605     3.4723    50.5561 </r>
       <r>     0.9680     2.8786    51.1535 </r>
       <r>     1.1756     2.7739    51.7292 </r>
       <r>     1.3831     4.3377    52.6294 </r>
       <r>     1.5906     3.9683    53.4530 </r>
       <r>     1.7982     4.3479    54.3554 </r>
       <r>     2.0057     6.8080    55.7683 </r>
       <r>     2.2133     9.3017    57.6987 </r>
       <r>     2.4208    13.5768    60.5164 </r>
       <r>     2.6283    18.1513    64.2835 </r>
       <r>     2.8359    20.0430    68.4432 </r>
       <r>     3.0434    24.7611    73.5821 </r>
       <r>     3.2509    27.9651    79.3859 </r>
       <r>     3.4585    28.3263    85.2647 </r>
       <r>     3.6660    29.6822    91.4248 </r>
       <r>     3.8736    29.9695    97.6446 </r>
       <r>     4.0811    29.1151   103.6871 </r>
       <r>     4.2886    25.5321   108.9860 </r>
       <r>     4.4962    25.1399   114.2035 </r>
       <r>     4.7037    32.6450   120.9786 </r>
       <r>     4.9112    38.6879   129.0078 </r>
       <r>     5.1188    39.7083   137.2488 </r>
       <r>     5.3263    37.5975   145.0517 </r>
       <r>     5.5339    37.5136   152.8372 </r>
       <r>     5.7414    37.9113   160.7052 </r>
       <r>     5.9489    37.9974   168.5911 </r>
       <r>     6.1565    38.6918   176.6211 </r>
       <r>     6.3640    39.5820   184.8359 </r>
       <r>     6.5715    35.9871   192.3046 </r>
       <r>     6.7791    31.8561   198.9159 </r>
       <r>     6.9866    28.4507   204.8205 </r>
       <r>     7.1942    23.3325   209.6629 </r>
       <r>     7.4017    17.5840   213.3123 </r>
       <r>     7.6092    15.3055   216.4887 </r>
       <r>     7.8168    16.2357   219.8582 </r>
       <r>     8.0243    18.7378   223.7470 </r>
       <r>     8.2319    22.0689   228.3272 </r>
       <r>     8.4394    22.4462   232.9856 </r>
       <r>     8.6469    17.6240   236.6433 </r>
       <r>     8.8545    10.8266   238.8902 </r>
       <r>     9.0620     4.6657   239.8585 </r>
       <r>     9.2695     0.7818   240.0208 </r>
       <r>     9.4771    -0.0872   240.0027 </r>
       <r>     9.6846    -0.0127   240.0000 </r>
       <r>     9.8922    -0.0001   240.0000 </r>
       <r>    10.0997    -0.0000   240.0000 </r>
       <r>    10.3072    -0.0000   240.0000 </r>
       <r>    10.5148    -0.0000   240.0000 </r>
       <r>    10.7223     0.0000   240.0000 </r>
       <r>    10.9298     0.0000   240.0000 </r>
       <r>    11.1374     0.0000   240.0000 </r>
       <r>    11.3449     0.0000   240.0000 </r>
       <r>    11.5525     0.0000   240.0000 </r>
       <r>    11.7600     0.0000   240.0000 </r>
       <r>    11.9675     0.0000   240.0000 </r>
      </set>
     </set>
    </array>
   </total>
  </dos>
 </calculation>
 <structure name="finalpos" >
  <crystal>
   <varray name="basis" >
    <v>      -3.20174538      -3.14634637      -3.16660105 </v>
    <v>       1.56400039       1.64302217      -7.94941313 </v>
    <v>       7.98152630      -7.92647990      -1.49957033 </v>
   </varray>
   <i name="volume">    482.66753299 </i>
   <varray name="rec_basis" >
    <v>      -0.13565174      -0.12659464      -0.05285386 </v>
    <v>       0.04222748       0.06231111      -0.10460869 </v>
    <v>       0.06259879      -0.06299276      -0.00070370 </v>
   </varray>
  </crystal>
  <varray name="positions" >
   <v>       0.94963887       0.92976021       0.39508319 </v>
   <v>       0.61266359       0.26586927       0.40201593 </v>
   <v>       0.50330566       0.00328887      -0.00298914 </v>
   <v>       0.00199831       0.00702520       0.00510380 </v>
   <v>       0.09661103       0.20484580       0.79635609 </v>
   <v>       0.03823115       0.07262845       0.58795374 </v>
   <v>       0.90575563       0.79837629       0.20227648 </v>
   <v>       0.80986530       0.58070323       0.39806777 </v>
   <v>       0.73432010       0.46953304       0.20204926 </v>
   <v>       0.66770266       0.34195769      -0.00142761 </v>
   <v>       0.36609759       0.72760871       0.59915568 </v>
   <v>       0.83806525       0.66685303       0.00195671 </v>
   <v>       0.92904216       0.87058662       0.79730424 </v>
   <v>       0.57766259       0.13583181       0.19434750 </v>
   <v>       0.40818711       0.79755701       0.20006274 </v>
   <v>       0.43455485       0.85799114       0.79603256 </v>
   <v>       0.30097297       0.60187145       0.40113619 </v>
   <v>       0.85933228       0.72765954       0.59605902 </v>
   <v>       0.46406527       0.92829722       0.40810164 </v>
   <v>       0.17453499       0.33443436       0.00473691 </v>
   <v>       0.26846168       0.53241768       0.79651468 </v>
   <v>       0.19000649       0.38735054       0.58795536 </v>
   <v>       0.07252524       0.15986669       0.22965282 </v>
   <v>       0.77139393       0.52742565       0.79947343 </v>
   <v>       0.68164180       0.40704247       0.60255990 </v>
   <v>       0.59763817       0.20111977       0.79665183 </v>
   <v>       0.54256949       0.06396386       0.60389311 </v>
   <v>       0.33791473       0.66047803       0.00015301 </v>
   <v>       0.23190781       0.47098970       0.19976318 </v>
  </varray>
 </structure>
</modeling>
