SQS with 1 vacancy for VFE and VRV      
           1
    -3.190000   -3.190000   -3.190000
     1.595000    1.595000   -7.975000
     7.975000   -7.975000   -1.595000
   Nb   Mo   Ta   Ti   W 
   6   5   6   6   6
Direct configuration=     1
   0.96666667  0.93333333  0.40000000
   0.63333333  0.26666667  0.40000000
   0.50000000  0.00000000  0.00000000
   0.00000000  0.00000000  0.00000000
   0.10000000  0.20000000  0.80000000
   0.03333333  0.06666667  0.60000000
   0.90000000  0.80000000  0.20000000
   0.80000000  0.60000000  0.40000000
   0.73333333  0.46666667  0.20000000
   0.66666667  0.33333333  0.00000000
   0.36666667  0.73333333  0.60000000
   0.83333333  0.66666667  0.00000000
   0.93333333  0.86666667  0.80000000
   0.56666667  0.13333333  0.20000000
   0.40000000  0.80000000  0.20000000
   0.43333333  0.86666667  0.80000000
   0.30000000  0.60000000  0.40000000
   0.86666667  0.73333333  0.60000000
   0.46666667  0.93333333  0.40000000
   0.16666667  0.33333333  0.00000000
   0.26666667  0.53333333  0.80000000
   0.20000000  0.40000000  0.60000000
   0.06666667  0.13333333  0.20000000
   0.76666667  0.53333333  0.80000000
   0.70000000  0.40000000  0.60000000
   0.60000000  0.20000000  0.80000000
   0.53333333  0.06666667  0.60000000
   0.33333333  0.66666667  0.00000000
   0.23333333  0.46666667  0.20000000
SQS with 1 vacancy for VFE and VRV      
           1
    -3.167293   -3.144915   -3.152047
     1.565285    1.594149   -7.883449
     7.917549   -7.894427   -1.543201
   Nb   Mo   Ta   Ti   W 
   6   5   6   6   6
Direct configuration=     2
   0.96180671  0.93209965  0.39790505
   0.63256385  0.26741833  0.40115295
   0.49819306  0.00295189 -0.00002604
  -0.00105811  0.00121371  0.00142492
   0.09740165  0.20433591  0.79849851
   0.03534065  0.06853794  0.59746160
   0.90148958  0.79854057  0.20254077
   0.80251633  0.59453870  0.39868229
   0.73379488  0.46706828  0.20001198
   0.66434320  0.33693799 -0.00014828
   0.36849355  0.73097064  0.59982398
   0.83429967  0.66368634  0.00188484
   0.93066729  0.86824422  0.80007173
   0.56893195  0.13425427  0.19713121
   0.40349767  0.79561691  0.19945449
   0.43634030  0.86166437  0.79749106
   0.30069878  0.60175274  0.40130781
   0.86301866  0.73394928  0.59892206
   0.46809120  0.93248861  0.40370541
   0.16886163  0.33365526  0.00156825
   0.26823508  0.53426659  0.79966805
   0.20111588  0.39613768  0.59785375
   0.06397683  0.13864544  0.20202254
   0.76901127  0.52938008  0.79966177
   0.69384814  0.40627622  0.60161494
   0.59787304  0.20150946  0.79806263
   0.53751984  0.06771245  0.60199301
   0.33493210  0.66093000  0.00071261
   0.23086201  0.46854978  0.19954611
SQS with 1 vacancy for VFE and VRV      
           1
    -3.170174   -3.150636   -3.156863
     1.569056    1.594257   -7.895066
     7.924839   -7.904650   -1.549774
   Nb   Mo   Ta   Ti   W 
   6   5   6   6   6
Direct configuration=     3
   0.96243153  0.93225878  0.39817437
   0.63266174  0.26732152  0.40100534
   0.49842459  0.00257327 -0.00002307
  -0.00092342  0.00105753  0.00124245
   0.09773554  0.20378030  0.79869015
   0.03508467  0.06829875  0.59778570
   0.90129699  0.79872685  0.20221563
   0.80219489  0.59523969  0.39885177
   0.73373564  0.46701674  0.20001027
   0.66464101  0.33647568 -0.00012972
   0.36825954  0.73127375  0.59984673
   0.83417475  0.66406796  0.00164411
   0.93100907  0.86804189  0.80006266
   0.56864318  0.13413710  0.19749778
   0.40304976  0.79617929  0.19952470
   0.43595666  0.86230690  0.79781282
   0.30060816  0.60152741  0.40113988
   0.86348722  0.73387074  0.59906055
   0.46790615  0.93259561  0.40323106
   0.16857905  0.33361335  0.00136705
   0.26803405  0.53414695  0.79971003
   0.20097447  0.39663388  0.59812917
   0.06432009  0.13796333  0.20176290
   0.76871109  0.52988728  0.79970556
   0.69463563  0.40547067  0.60140788
   0.59814698  0.20131657  0.79831064
   0.53698148  0.06757748  0.60173690
   0.33472706  0.66166562  0.00062245
   0.23117913  0.46830843  0.19960422
SQS with 1 vacancy for VFE and VRV      
           1
    -3.190286   -3.155084   -3.166753
     1.566102    1.611898   -7.922196
     7.974302   -7.938242   -1.531426
   Nb   Mo   Ta   Ti   W 
   6   5   6   6   6
Direct configuration=     4
   0.95863847  0.93162075  0.39649283
   0.63171727  0.26785248  0.40180703
   0.49710966  0.00432162 -0.00031076
  -0.00153817  0.00206404  0.00227608
   0.09605376  0.20660760  0.79759828
   0.03704635  0.07018234  0.59536669
   0.90238932  0.79766905  0.20392839
   0.80486675  0.59050925  0.39800630
   0.73443628  0.46684222  0.20028698
   0.66323108  0.33901398 -0.00034772
   0.36948354  0.72955716  0.59970286
   0.83482604  0.66231166  0.00298969
   0.92946974  0.86912097  0.80011218
   0.56983309  0.13483959  0.19572673
   0.40552921  0.79344603  0.19933123
   0.43753691  0.85888972  0.79622778
   0.30117781  0.60244706  0.40226215
   0.86083695  0.73416376  0.59810325
   0.46856706  0.93223609  0.40614132
   0.17030501  0.33377881  0.00253014
   0.26906865  0.53465500  0.79931205
   0.20117367  0.39363075  0.59597926
   0.06257120  0.14249928  0.20386589
   0.77069515  0.52723303  0.79947951
   0.69011860  0.41006765  0.60246857
   0.59644027  0.20252217  0.79696786
   0.54005059  0.06831540  0.60305549
   0.33574426  0.65773256  0.00095567
   0.22928815  0.46920330  0.19968426
SQS with 1 vacancy for VFE and VRV      
           1
    -3.198704   -3.156946   -3.170892
     1.564866    1.619281   -7.933551
     7.995004   -7.952301   -1.523746
   Nb   Mo   Ta   Ti   W 
   6   5   6   6   6
Direct configuration=     5
   0.95705445  0.93135321  0.39579080
   0.63132473  0.26807447  0.40214072
   0.49656128  0.00505028 -0.00043015
  -0.00179282  0.00248451  0.00270674
   0.09535146  0.20778546  0.79714449
   0.03786109  0.07096579  0.59436132
   0.90284706  0.79722945  0.20464139
   0.80597875  0.58853637  0.39765282
   0.73472878  0.46676971  0.20040238
   0.66264333  0.34007206 -0.00043770
   0.36999338  0.72884137  0.59964254
   0.83509923  0.66158051  0.00354927
   0.92882818  0.86957086  0.80013275
   0.57032678  0.13513109  0.19499020
   0.40656226  0.79230636  0.19925022
   0.43819292  0.85746374  0.79556664
   0.30141710  0.60283143  0.40273015
   0.85973061  0.73428505  0.59770375
   0.46884675  0.93208859  0.40735313
   0.17102634  0.33384881  0.00301520
   0.26949953  0.53486654  0.79914704
   0.20125312  0.39237689  0.59508259
   0.06184581  0.14439214  0.20474322
   0.77152162  0.52612627  0.79938477
   0.68823756  0.41198500  0.60291083
   0.59572693  0.20302368  0.79640873
   0.54133226  0.06862426  0.60360615
   0.33616820  0.65609303  0.00109272
   0.22849999  0.46957640  0.19971729
SQS with 1 vacancy for VFE and VRV      
           1
    -3.199307   -3.158422   -3.173797
     1.565521    1.620225   -7.941369
     7.996969   -7.956245   -1.525379
   Nb   Mo   Ta   Ti   W 
   6   5   6   6   6
Direct configuration=     6
   0.95648862  0.93152576  0.39559893
   0.63054254  0.26812236  0.40210844
   0.49706938  0.00404299 -0.00105583
  -0.00172588  0.00251249  0.00276511
   0.09580159  0.20696999  0.79706546
   0.03847183  0.07159043  0.59369098
   0.90300420  0.79709985  0.20422027
   0.80693646  0.58769303  0.39785014
   0.73473258  0.46640718  0.20073802
   0.66327946  0.33977355 -0.00074230
   0.36950361  0.72920132  0.59963084
   0.83468985  0.66258320  0.00351495
   0.92911315  0.86976787  0.80017235
   0.57012092  0.13532349  0.19522123
   0.40661607  0.79273776  0.19945122
   0.43738705  0.85777181  0.79604226
   0.30170930  0.60242241  0.40271700
   0.85980384  0.73395560  0.59746871
   0.46849271  0.93203346  0.40770137
   0.17119277  0.33382901  0.00304798
   0.26938161  0.53453458  0.79886272
   0.20016636  0.39200331  0.59414319
   0.06213333  0.14557680  0.20591066
   0.77153447  0.52690812  0.79962667
   0.68802647  0.41159005  0.60286931
   0.59586677  0.20291771  0.79657002
   0.54178846  0.06844518  0.60362232
   0.33582331  0.65684329  0.00097685
   0.22871584  0.46915074  0.20021112
SQS with 1 vacancy for VFE and VRV      
           1
    -3.200734   -3.161915   -3.180674
     1.567071    1.622460   -7.959874
     8.001619   -7.965579   -1.529243
   Nb   Mo   Ta   Ti   W 
   6   5   6   6   6
Direct configuration=     7
   0.95514989  0.93193407  0.39514499
   0.62869184  0.26823595  0.40203217
   0.49827253  0.00166062 -0.00253641
  -0.00156755  0.00257862  0.00290322
   0.09686709  0.20504130  0.79687835
   0.03991707  0.07306741  0.59210478
   0.90337640  0.79679330  0.20322381
   0.80920271  0.58569819  0.39831688
   0.73474150  0.46554981  0.20153217
   0.66478494  0.33906731 -0.00146313
   0.36834462  0.73005277  0.59960324
   0.83372079  0.66495463  0.00343383
   0.92978728  0.87023366  0.80026603
   0.56963357  0.13577857  0.19576794
   0.40674304  0.79375795  0.19992683
   0.43547982  0.85850072  0.79716778
   0.30240087  0.60145499  0.40268583
   0.85997742  0.73317646  0.59691255
   0.46765481  0.93190323  0.40852544
   0.17158653  0.33378212  0.00312551
   0.26910300  0.53374956  0.79818996
   0.19759590  0.39112033  0.59192054
   0.06281218  0.14837827  0.20867303
   0.77156433  0.52875714  0.80019908
   0.68752725  0.41065613  0.60277109
   0.59619755  0.20266706  0.79695163
   0.54286793  0.06802147  0.60366052
   0.33500699  0.65861773  0.00070277
   0.22922638  0.46814397  0.20137958
SQS with 1 vacancy for VFE and VRV      
           1
    -3.194910   -3.155509   -3.175673
     1.563818    1.619835   -7.947613
     7.987059   -7.950292   -1.525995
   Nb   Mo   Ta   Ti   W 
   6   5   6   6   6
Direct configuration=     8
   0.95458420  0.93195465  0.39495844
   0.62785927  0.26816071  0.40204271
   0.49865281  0.00118486 -0.00284812
  -0.00146946  0.00271133  0.00305014
   0.09704423  0.20460940  0.79679925
   0.04039509  0.07353046  0.59151426
   0.90352158  0.79674591  0.20296387
   0.80992454  0.58499440  0.39850695
   0.73455144  0.46557635  0.20172643
   0.66516976  0.33898240 -0.00164703
   0.36802689  0.73026899  0.59964648
   0.83365985  0.66539439  0.00345023
   0.92978587  0.87046612  0.80007758
   0.56979578  0.13572070  0.19578018
   0.40679103  0.79405871  0.20015091
   0.43503785  0.85868080  0.79733335
   0.30255793  0.60135931  0.40257239
   0.85998825  0.73285292  0.59674896
   0.46728537  0.93177707  0.40876666
   0.17180486  0.33380963  0.00314477
   0.26908821  0.53349420  0.79791000
   0.19658372  0.39073753  0.59104777
   0.06302052  0.14952738  0.21000593
   0.77152287  0.52916323  0.80035644
   0.68721596  0.41035552  0.60282935
   0.59644621  0.20252940  0.79701191
   0.54343017  0.06777710  0.60376457
   0.33490811  0.65902435  0.00068730
   0.22948376  0.46788549  0.20164832
SQS with 1 vacancy for VFE and VRV      
           1
    -3.183153   -3.142580   -3.165579
     1.557253    1.614536   -7.922866
     7.957672   -7.919435   -1.519440
   Nb   Mo   Ta   Ti   W 
   6   5   6   6   6
Direct configuration=     9
   0.95344020  0.93199640  0.39458114
   0.62617566  0.26800883  0.40206395
   0.49942187  0.00022293 -0.00347849
  -0.00127110  0.00297959  0.00334727
   0.09740253  0.20373620  0.79663925
   0.04136148  0.07446647  0.59032017
   0.90381513  0.79665009  0.20243821
   0.81138449  0.58357139  0.39889132
   0.73416712  0.46563005  0.20211923
   0.66594793  0.33881065 -0.00201888
   0.36738432  0.73070621  0.59973392
   0.83353651  0.66628346  0.00348342
   0.92978291  0.87093607  0.79969651
   0.57012382  0.13560368  0.19580495
   0.40688807  0.79466674  0.20060408
   0.43414410  0.85904496  0.79766816
   0.30287554  0.60116584  0.40234299
   0.86001020  0.73219885  0.59641813
   0.46653839  0.93152212  0.40925444
   0.17224637  0.33386518  0.00318375
   0.26905831  0.53297795  0.79734381
   0.19453673  0.38996390  0.58928270
   0.06344185  0.15185042  0.21270150
   0.77143895  0.52998422  0.80067471
   0.68658655  0.40974788  0.60294711
   0.59694911  0.20225106  0.79713382
   0.54456721  0.06728292  0.60397501
   0.33470804  0.65984642  0.00065605
   0.23000436  0.46736286  0.20219179
SQS with 1 vacancy for VFE and VRV      
           1
    -3.190236   -3.150370   -3.171660
     1.561208    1.617728   -7.937776
     7.975378   -7.938026   -1.523390
   Nb   Mo   Ta   Ti   W 
   6   5   6   6   6
Direct configuration=    10
   0.95413213  0.93197099  0.39480938
   0.62719385  0.26810038  0.40205120
   0.49895670  0.00080447 -0.00309724
  -0.00139106  0.00281748  0.00316754
   0.09718572  0.20426405  0.79673604
   0.04077736  0.07390085  0.59104225
   0.90363766  0.79670805  0.20275611
   0.81050126  0.58443174  0.39865886
   0.73439949  0.46559754  0.20188168
   0.66547734  0.33891458 -0.00179401
   0.36777299  0.73044184  0.59968105
   0.83361124  0.66574606  0.00346330
   0.92978483  0.87065201  0.79992695
   0.56992541  0.13567446  0.19578996
   0.40682941  0.79429924  0.20032997
   0.43468463  0.85882471  0.79746570
   0.30268346  0.60128283  0.40248172
   0.85999687  0.73259420  0.59661825
   0.46699003  0.93167611  0.40895949
   0.17197936  0.33383167  0.00316015
   0.26907640  0.53328999  0.79768626
   0.19577485  0.39043120  0.59035034
   0.06318699  0.15044635  0.21107110
   0.77148979  0.52948797  0.80048218
   0.68696709  0.41011507  0.60287595
   0.59664491  0.20241938  0.79706008
   0.54387944  0.06758180  0.60384771
   0.33482917  0.65934950  0.00067492
   0.22968934  0.46767884  0.20186311
SQS with 1 vacancy for VFE and VRV      
           1
    -3.190976   -3.149031   -3.171188
     1.561192    1.618883   -7.938043
     7.977096   -7.936144   -1.521549
   Nb   Mo   Ta   Ti   W 
   6   5   6   6   6
Direct configuration=    11
   0.95357598  0.93188077  0.39468154
   0.62624306  0.26785911  0.40207591
   0.49914632  0.00093699 -0.00305579
  -0.00122589  0.00310210  0.00341110
   0.09712589  0.20426334  0.79665767
   0.04113424  0.07419676  0.59046662
   0.90372784  0.79678383  0.20270058
   0.81098146  0.58386694  0.39883218
   0.73411406  0.46595097  0.20193763
   0.66561303  0.33904174 -0.00180720
   0.36763350  0.73049799  0.59974091
   0.83398228  0.66557219  0.00350617
   0.92953832  0.87082649  0.79950983
   0.57044370  0.13536217  0.19563536
   0.40687751  0.79449765  0.20059261
   0.43462763  0.85889270  0.79732042
   0.30261442  0.60148774  0.40232652
   0.86000269  0.73226699  0.59651554
   0.46654022  0.93155187  0.40903642
   0.17224421  0.33389050  0.00318190
   0.26912607  0.53314262  0.79742395
   0.19488433  0.39008284  0.58956740
   0.06340569  0.15149521  0.21260721
   0.77145750  0.52945338  0.80051530
   0.68655087  0.40992030  0.60299611
   0.59691497  0.20232189  0.79703641
   0.54442345  0.06727118  0.60395254
   0.33499355  0.65937225  0.00072770
   0.22996980  0.46754481  0.20190743
SQS with 1 vacancy for VFE and VRV      
           1
    -3.193196   -3.145015   -3.169770
     1.561144    1.622347   -7.938843
     7.982248   -7.930498   -1.516026
   Nb   Mo   Ta   Ti   W 
   6   5   6   6   6
Direct configuration=    12
   0.95190712  0.93161014  0.39429778
   0.62339038  0.26713540  0.40214962
   0.49971536  0.00133450 -0.00293136
  -0.00072980  0.00395588  0.00414190
   0.09694622  0.20426122  0.79642251
   0.04220414  0.07508441  0.58873991
   0.90399835  0.79701114  0.20253404
   0.81242227  0.58217272  0.39935223
   0.73325792  0.46701118  0.20210542
   0.66602017  0.33942320 -0.00184668
   0.36721512  0.73066644  0.59992047
   0.83509550  0.66505064  0.00363490
   0.92879807  0.87134989  0.79825841
   0.57199832  0.13442540  0.19517167
   0.40702233  0.79509281  0.20138063
   0.43445638  0.85909666  0.79688459
   0.30240707  0.60210240  0.40186094
   0.86001985  0.73128544  0.59620735
   0.46519074  0.93117920  0.40926700
   0.17303888  0.33406698  0.00324729
   0.26927461  0.53270054  0.79663699
   0.19221103  0.38903786  0.58721815
   0.06406486  0.15464147  0.21721593
   0.77136067  0.52934964  0.80061463
   0.68530220  0.40933605  0.60335640
   0.59772515  0.20202946  0.79696547
   0.54605569  0.06633943  0.60426720
   0.33548681  0.65944049  0.00088613
   0.23081125  0.46714275  0.20204048
SQS with 1 vacancy for VFE and VRV      
           1
    -3.197635   -3.136983   -3.166935
     1.561048    1.629274   -7.940442
     7.992553   -7.919206   -1.504980
   Nb   Mo   Ta   Ti   W 
   6   5   6   6   6
Direct configuration=    13
   0.94856694  0.93106905  0.39352879
   0.61768309  0.26568845  0.40229449
   0.50085448  0.00212927 -0.00268185
   0.00026583  0.00566294  0.00560433
   0.09658599  0.20425696  0.79595203
   0.04433932  0.07685912  0.58528760
   0.90453911  0.79746561  0.20220127
   0.81530516  0.57878527  0.40039274
   0.73154655  0.46913097  0.20244082
   0.66683486  0.34018588 -0.00192514
   0.36637887  0.73100325  0.60027935
   0.83732262  0.66400785  0.00389300
   0.92731329  0.87239637  0.79575511
   0.57510613  0.13255238  0.19424507
   0.40731521  0.79628279  0.20295711
   0.43411246  0.85950445  0.79601284
   0.30199116  0.60333136  0.40092984
   0.86005235  0.72932294  0.59559053
   0.46249152  0.93043410  0.40972695
   0.17462905  0.33441982  0.00337876
   0.26956873  0.53181664  0.79506294
   0.18685410  0.38694854  0.58251691
   0.06540178  0.16093217  0.22643561
   0.77116721  0.52914223  0.80081318
   0.68280495  0.40816793  0.60407575
   0.59934549  0.20144476  0.79682410
   0.54932143  0.06447645  0.60489740
   0.33647422  0.65957692  0.00120341
   0.23249478  0.46633885  0.20230707
SQS with 1 vacancy for VFE and VRV      
           1
    -3.194475   -3.142701   -3.168953
     1.561117    1.624343   -7.939304
     7.985218   -7.927244   -1.512843
   Nb   Mo   Ta   Ti   W 
   6   5   6   6   6
Direct configuration=    14
   0.95094811  0.93145395  0.39407826
   0.62174849  0.26671775  0.40219501
   0.50004211  0.00156387 -0.00286036
  -0.00044780  0.00444852  0.00456215
   0.09684371  0.20425999  0.79628716
   0.04282597  0.07559664  0.58774350
   0.90415451  0.79714231  0.20243772
   0.81325122  0.58119515  0.39965147
   0.73276345  0.46762290  0.20220234
   0.66625437  0.33964332 -0.00186998
   0.36697342  0.73076363  0.60002423
   0.83573634  0.66474973  0.00370834
   0.92837631  0.87165190  0.79753768
   0.57289593  0.13388491  0.19490355
   0.40710211  0.79543622  0.20183430
   0.43435931  0.85921435  0.79663349
   0.30228897  0.60245707  0.40159252
   0.86003179  0.73071909  0.59603024
   0.46441330  0.93096413  0.40940126
   0.17349596  0.33416883  0.00328417
   0.26936356  0.53244547  0.79618360
   0.19068211  0.38843488  0.58586731
   0.06442365  0.15645684  0.21986952
   0.77130463  0.52928978  0.80067201
   0.68458249  0.40899890  0.60356541
   0.59819209  0.20186074  0.79692401
   0.54699495  0.06580182  0.60444753
   0.33577010  0.65947987  0.00097695
   0.23129551  0.46691077  0.20211660
SQS with 1 vacancy for VFE and VRV      
           1
    -3.201042   -3.148674   -3.173240
     1.563163    1.630289   -7.951705
     7.996202   -7.939940   -1.511766
   Nb   Mo   Ta   Ti   W 
   6   5   6   6   6
Direct configuration=    15
   0.95067997  0.93117473  0.39433287
   0.62064899  0.26666675  0.40200334
   0.50047941  0.00177387 -0.00272455
  -0.00019772  0.00466136  0.00468178
   0.09701936  0.20474146  0.79623237
   0.04235053  0.07524047  0.58765411
   0.90433423  0.79712777  0.20264668
   0.81244609  0.58139088  0.39945176
   0.73288457  0.46777091  0.20228978
   0.66621474  0.34003160 -0.00162845
   0.36725025  0.73023283  0.59981029
   0.83607929  0.66488742  0.00347352
   0.92868661  0.87139299  0.79754452
   0.57343456  0.13408872  0.19482767
   0.40717113  0.79558284  0.20148632
   0.43442643  0.85897034  0.79653807
   0.30236810  0.60237310  0.40188969
   0.86023301  0.73031073  0.59606965
   0.46419437  0.93078334  0.40920285
   0.17350379  0.33414799  0.00345472
   0.26922477  0.53263861  0.79616921
   0.19101720  0.38836711  0.58598944
   0.06530491  0.15676108  0.22098722
   0.77129497  0.52871282  0.80040157
   0.68376857  0.40915530  0.60348471
   0.59796650  0.20190891  0.79683064
   0.54659873  0.06577012  0.60431257
   0.33604495  0.65927082  0.00094306
   0.23123837  0.46739847  0.20164458
SQS with 1 vacancy for VFE and VRV      
           1
    -3.202336   -3.149850   -3.174084
     1.563567    1.631459   -7.954147
     7.998364   -7.942440   -1.511554
   Nb   Mo   Ta   Ti   W 
   6   5   6   6   6
Direct configuration=    16
   0.95062725  0.93111985  0.39438292
   0.62043288  0.26665666  0.40196565
   0.50056537  0.00181518 -0.00269783
  -0.00014855  0.00470322  0.00470531
   0.09705392  0.20483611  0.79622163
   0.04225705  0.07517042  0.58763651
   0.90436955  0.79712493  0.20268776
   0.81228786  0.58142931  0.39941250
   0.73290838  0.46780001  0.20230698
   0.66620698  0.34010795 -0.00158095
   0.36730462  0.73012848  0.59976820
   0.83614671  0.66491448  0.00342735
   0.92874758  0.87134211  0.79754586
   0.57354045  0.13412880  0.19481277
   0.40718471  0.79561164  0.20141791
   0.43443961  0.85892237  0.79651929
   0.30238364  0.60235662  0.40194811
   0.86027252  0.73023047  0.59607738
   0.46415133  0.93074778  0.40916382
   0.17350532  0.33414391  0.00348826
   0.26919751  0.53267657  0.79616639
   0.19108305  0.38835381  0.58601345
   0.06547813  0.15682102  0.22120701
   0.77129303  0.52859938  0.80034837
   0.68360861  0.40918601  0.60346885
   0.59792216  0.20191836  0.79681228
   0.54652085  0.06576386  0.60428603
   0.33609896  0.65922973  0.00093639
   0.23122719  0.46749429  0.20155179
SQS with 1 vacancy for VFE and VRV      
           1
    -3.202360   -3.149702   -3.172642
     1.562854    1.633412   -7.951818
     7.994228   -7.939937   -1.508744
   Nb   Mo   Ta   Ti   W 
   6   5   6   6   6
Direct configuration=    17
   0.95048027  0.93089092  0.39458948
   0.61966110  0.26664300  0.40183655
   0.50092005  0.00195708 -0.00263761
   0.00003626  0.00484472  0.00476520
   0.09715663  0.20516783  0.79617995
   0.04179698  0.07483943  0.58768222
   0.90452443  0.79710246  0.20284043
   0.81160530  0.58163699  0.39922650
   0.73302248  0.46792544  0.20235216
   0.66618836  0.34039761 -0.00142620
   0.36750528  0.72971688  0.59960917
   0.83634576  0.66506654  0.00323484
   0.92895070  0.87118737  0.79757610
   0.57393670  0.13435308  0.19475604
   0.40721726  0.79567302  0.20113529
   0.43453113  0.85871715  0.79644876
   0.30242911  0.60230465  0.40211202
   0.86038975  0.72993438  0.59612690
   0.46404543  0.93058141  0.40899285
   0.17348649  0.33412251  0.00363478
   0.26908445  0.53282606  0.79619896
   0.19138103  0.38830856  0.58621882
   0.06619677  0.15697491  0.22198501
   0.77126824  0.52819523  0.80015226
   0.68309285  0.40926906  0.60338072
   0.59779769  0.20191120  0.79674070
   0.54613987  0.06574611  0.60419717
   0.33632076  0.65909806  0.00090324
   0.23115554  0.46794167  0.20118771
SQS with 1 vacancy for VFE and VRV      
           1
    -3.202432   -3.149262   -3.168377
     1.560745    1.639191   -7.944927
     7.981988   -7.932532   -1.500431
   Nb   Mo   Ta   Ti   W 
   6   5   6   6   6
Direct configuration=    18
   0.95004513  0.93021361  0.39520076
   0.61737750  0.26660212  0.40145440
   0.50196961  0.00237717 -0.00245929
   0.00058322  0.00526356  0.00494251
   0.09746082  0.20614944  0.79605677
   0.04043537  0.07385984  0.58781731
   0.90498263  0.79703616  0.20329229
   0.80958591  0.58225110  0.39867603
   0.73336020  0.46829667  0.20248594
   0.66613348  0.34125487 -0.00096801
   0.36809872  0.72849884  0.59913826
   0.83693492  0.66551639  0.00266512
   0.92955157  0.87072958  0.79766554
   0.57510935  0.13501687  0.19458825
   0.40731371  0.79585440  0.20029881
   0.43480179  0.85810985  0.79623991
   0.30256354  0.60215103  0.40259712
   0.86073635  0.72905832  0.59627330
   0.46373202  0.93008893  0.40848670
   0.17343072  0.33405933  0.00406847
   0.26875003  0.53326839  0.79629544
   0.19226261  0.38817497  0.58682667
   0.06832308  0.15743132  0.22428791
   0.77119460  0.52699913  0.79957161
   0.68156686  0.40951453  0.60311991
   0.59742942  0.20188991  0.79652882
   0.54501259  0.06569335  0.60393412
   0.33697696  0.65870851  0.00080505
   0.23094399  0.46926514  0.20011028
SQS with 1 vacancy for VFE and VRV      
           1
    -3.200615   -3.147232   -3.166885
     1.560792    1.638349   -7.942342
     7.977306   -7.926480   -1.500501
   Nb   Mo   Ta   Ti   W 
   6   5   6   6   6
Direct configuration=    19
   0.95008841  0.93017962  0.39524503
   0.61708646  0.26655773  0.40151153
   0.50205082  0.00243288 -0.00256053
   0.00075255  0.00539646  0.00495465
   0.09734590  0.20594019  0.79605559
   0.04018210  0.07377115  0.58795760
   0.90498767  0.79713577  0.20320705
   0.80962029  0.58221037  0.39861106
   0.73345090  0.46841053  0.20240286
   0.66635047  0.34118265 -0.00105856
   0.36787412  0.72853486  0.59918633
   0.83695235  0.66562477  0.00259090
   0.92941684  0.87082220  0.79766961
   0.57526180  0.13509735  0.19455384
   0.40733644  0.79590830  0.20030174
   0.43497312  0.85811586  0.79623389
   0.30220831  0.60223935  0.40228036
   0.86070765  0.72895815  0.59629264
   0.46370915  0.92999533  0.40834733
   0.17343331  0.33403126  0.00412319
   0.26863364  0.53318043  0.79637152
   0.19202803  0.38812301  0.58700016
   0.06876423  0.15748896  0.22474223
   0.77117698  0.52721009  0.79960493
   0.68190965  0.40914762  0.60296344
   0.59765041  0.20172981  0.79657468
   0.54471664  0.06552800  0.60392623
   0.33704688  0.65895262  0.00071480
   0.23095154  0.46942800  0.20019590
SQS with 1 vacancy for VFE and VRV      
           1
    -3.198018   -3.144329   -3.164752
     1.560859    1.637146   -7.938646
     7.970613   -7.917828   -1.500601
   Nb   Mo   Ta   Ti   W 
   6   5   6   6   6
Direct configuration=    20
   0.95015033  0.93013101  0.39530836
   0.61667018  0.26649427  0.40159325
   0.50216697  0.00251256 -0.00270535
   0.00099477  0.00558649  0.00497201
   0.09718151  0.20564098  0.79605390
   0.03981985  0.07364431  0.58815830
   0.90499487  0.79727823  0.20308511
   0.80966945  0.58215215  0.39851813
   0.73358062  0.46857335  0.20228401
   0.66666084  0.34107938 -0.00118807
   0.36755288  0.72858638  0.59925510
   0.83697726  0.66577978  0.00248471
   0.92922415  0.87095464  0.79767542
   0.57547984  0.13521244  0.19450460
   0.40736896  0.79598537  0.20030593
   0.43521818  0.85812445  0.79622529
   0.30170017  0.60236575  0.40182723
   0.86066661  0.72881491  0.59632032
   0.46367641  0.92986153  0.40814797
   0.17343702  0.33399112  0.00420146
   0.26846716  0.53305464  0.79648037
   0.19169254  0.38804867  0.58724833
   0.06939532  0.15757122  0.22539212
   0.77115180  0.52751175  0.79965257
   0.68239992  0.40862296  0.60273965
   0.59796652  0.20150084  0.79664030
   0.54429332  0.06529158  0.60391495
   0.33714688  0.65930170  0.00058568
   0.23096237  0.46966088  0.20031836
SQS with 1 vacancy for VFE and VRV      
           1
    -3.198778   -3.144818   -3.165732
     1.561902    1.637661   -7.942044
     7.972820   -7.918880   -1.501561
   Nb   Mo   Ta   Ti   W 
   6   5   6   6   6
Direct configuration=    21
   0.95018393  0.93012800  0.39533350
   0.61640567  0.26645841  0.40165036
   0.50221785  0.00256451 -0.00277911
   0.00114114  0.00571150  0.00498226
   0.09710671  0.20543463  0.79607559
   0.03962726  0.07357419  0.58825578
   0.90496059  0.79740833  0.20297357
   0.80975527  0.58207197  0.39847102
   0.73366691  0.46864747  0.20220761
   0.66685056  0.34101064 -0.00127494
   0.36733466  0.72861254  0.59930371
   0.83702264  0.66587172  0.00243229
   0.92918729  0.87098733  0.79767315
   0.57560883  0.13528205  0.19447504
   0.40740698  0.79608490  0.20031422
   0.43524943  0.85818162  0.79621201
   0.30142430  0.60237699  0.40160276
   0.86061464  0.72874498  0.59633475
   0.46365683  0.92978922  0.40804439
   0.17345523  0.33398102  0.00423551
   0.26838636  0.53295659  0.79654327
   0.19147167  0.38802010  0.58738486
   0.06977623  0.15763700  0.22577947
   0.77117194  0.52768088  0.79967880
   0.68267683  0.40830645  0.60261516
   0.59809189  0.20140830  0.79668085
   0.54404124  0.06512919  0.60390734
   0.33717886  0.65952043  0.00049604
   0.23099493  0.46975240  0.20039073
SQS with 1 vacancy for VFE and VRV      
           1
    -3.200443   -3.145890   -3.167882
     1.564191    1.638789   -7.949493
     7.977660   -7.921188   -1.503666
   Nb   Mo   Ta   Ti   W 
   6   5   6   6   6
Direct configuration=    22
   0.95025761  0.93012138  0.39538862
   0.61582591  0.26637984  0.40177553
   0.50232937  0.00267837 -0.00294078
   0.00146200  0.00598545  0.00500473
   0.09694275  0.20498243  0.79612314
   0.03920514  0.07342051  0.58846947
   0.90488543  0.79769348  0.20272906
   0.80994336  0.58189626  0.39836777
   0.73385604  0.46880990  0.20204017
   0.66726638  0.34085999 -0.00146535
   0.36685635  0.72866986  0.59941027
   0.83712211  0.66607320  0.00231739
   0.92910649  0.87105897  0.79766818
   0.57589155  0.13543459  0.19441024
   0.40749035  0.79630301  0.20033237
   0.43531792  0.85830689  0.79618290
   0.30081956  0.60240172  0.40111072
   0.86050075  0.72859172  0.59636638
   0.46361388  0.92963081  0.40781736
   0.17349517  0.33395887  0.00431014
   0.26820926  0.53274171  0.79668116
   0.19098758  0.38795748  0.58768411
   0.07061123  0.15778099  0.22662851
   0.77121612  0.52805151  0.79973630
   0.68328372  0.40761284  0.60234230
   0.59836669  0.20120550  0.79676976
   0.54348870  0.06477335  0.60389066
   0.33724894  0.65999976  0.00029955
   0.23106633  0.46995295  0.20054937
SQS with 1 vacancy for VFE and VRV      
           1
    -3.200549   -3.146000   -3.167902
     1.564102    1.639014   -7.949568
     7.978194   -7.921991   -1.503427
   Nb   Mo   Ta   Ti   W 
   6   5   6   6   6
Direct configuration=    23
   0.95021551  0.93013307  0.39536614
   0.61563207  0.26636998  0.40179247
   0.50240551  0.00270389 -0.00293740
   0.00149739  0.00604926  0.00501861