  30  30   0   0
  0.1623088E+02  0.5525242E-09  0.8287863E-09  0.1139058E-08  0.5000000E-15
  1.000000000000000E-004
  CAR 
 Nb - Mo - Ta - Ti - V SQS               
     11.36664747    -50.36304186  301      6.45400913      1.00000000
    -50.363  0.0000E+00  0.0000E+00
    -50.157  0.0000E+00  0.0000E+00
    -49.952  0.0000E+00  0.0000E+00
    -49.746  0.0000E+00  0.0000E+00
    -49.540  0.0000E+00  0.0000E+00
    -49.334 -0.1035E-32 -0.2130E-33
    -49.128 -0.3020E-25 -0.6214E-26
    -48.923 -0.1027E-18 -0.2114E-19
    -48.717 -0.4049E-13 -0.8332E-14
    -48.511 -0.1925E-08 -0.3962E-09
    -48.305 -0.1071E-04 -0.2204E-05
    -48.100 -0.6766E-02 -0.1394E-02
    -47.894 -0.4312E+00 -0.9012E-01
    -47.688 -0.3099E-01 -0.9650E-01
    -47.482  0.2597E+02  0.5247E+01
    -47.277  0.3097E+02  0.1162E+02
    -47.071  0.2555E+01  0.1215E+02
    -46.865 -0.6813E+00  0.1201E+02
    -46.659 -0.2543E-01  0.1200E+02
    -46.453 -0.9497E-04  0.1200E+02
    -46.248 -0.4088E-07  0.1200E+02
    -46.042 -0.2065E-11  0.1200E+02
    -45.836  0.0000E+00  0.1200E+02
    -45.630  0.0000E+00  0.1200E+02
    -45.425  0.0000E+00  0.1200E+02
    -45.219  0.0000E+00  0.1200E+02
    -45.013  0.0000E+00  0.1200E+02
    -44.807  0.0000E+00  0.1200E+02
    -44.602  0.0000E+00  0.1200E+02
    -44.396  0.0000E+00  0.1200E+02
    -44.190  0.0000E+00  0.1200E+02
    -43.984  0.0000E+00  0.1200E+02
    -43.779  0.0000E+00  0.1200E+02
    -43.573  0.0000E+00  0.1200E+02
    -43.367  0.0000E+00  0.1200E+02
    -43.161  0.0000E+00  0.1200E+02
    -42.955  0.0000E+00  0.1200E+02
    -42.750  0.0000E+00  0.1200E+02
    -42.544  0.0000E+00  0.1200E+02
    -42.338  0.0000E+00  0.1200E+02
    -42.132  0.0000E+00  0.1200E+02
    -41.927  0.0000E+00  0.1200E+02
    -41.721  0.0000E+00  0.1200E+02
    -41.515  0.0000E+00  0.1200E+02
    -41.309  0.0000E+00  0.1200E+02
    -41.104  0.0000E+00  0.1200E+02
    -40.898  0.0000E+00  0.1200E+02
    -40.692  0.0000E+00  0.1200E+02
    -40.486  0.0000E+00  0.1200E+02
    -40.281  0.0000E+00  0.1200E+02
    -40.075  0.0000E+00  0.1200E+02
    -39.869  0.0000E+00  0.1200E+02
    -39.663  0.0000E+00  0.1200E+02
    -39.457  0.0000E+00  0.1200E+02
    -39.252  0.0000E+00  0.1200E+02
    -39.046  0.0000E+00  0.1200E+02
    -38.840  0.0000E+00  0.1200E+02
    -38.634  0.0000E+00  0.1200E+02
    -38.429  0.0000E+00  0.1200E+02
    -38.223  0.0000E+00  0.1200E+02
    -38.017  0.0000E+00  0.1200E+02
    -37.811  0.0000E+00  0.1200E+02
    -37.606  0.0000E+00  0.1200E+02
    -37.400  0.0000E+00  0.1200E+02
    -37.194  0.0000E+00  0.1200E+02
    -36.988  0.0000E+00  0.1200E+02
    -36.783  0.0000E+00  0.1200E+02
    -36.577  0.0000E+00  0.1200E+02
    -36.371  0.0000E+00  0.1200E+02
    -36.165  0.0000E+00  0.1200E+02
    -35.959  0.0000E+00  0.1200E+02
    -35.754  0.0000E+00  0.1200E+02
    -35.548  0.0000E+00  0.1200E+02
    -35.342  0.0000E+00  0.1200E+02
    -35.136  0.0000E+00  0.1200E+02
    -34.931  0.0000E+00  0.1200E+02
    -34.725  0.0000E+00  0.1200E+02
    -34.519  0.0000E+00  0.1200E+02
    -34.313  0.0000E+00  0.1200E+02
    -34.108  0.0000E+00  0.1200E+02
    -33.902  0.0000E+00  0.1200E+02
    -33.696  0.0000E+00  0.1200E+02
    -33.490  0.0000E+00  0.1200E+02
    -33.284  0.0000E+00  0.1200E+02
    -33.079  0.0000E+00  0.1200E+02
    -32.873  0.0000E+00  0.1200E+02
    -32.667  0.0000E+00  0.1200E+02
    -32.461  0.0000E+00  0.1200E+02
    -32.256  0.0000E+00  0.1200E+02
    -32.050  0.0000E+00  0.1200E+02
    -31.844  0.0000E+00  0.1200E+02
    -31.638  0.0000E+00  0.1200E+02
    -31.433  0.0000E+00  0.1200E+02
    -31.227  0.0000E+00  0.1200E+02
    -31.021  0.0000E+00  0.1200E+02
    -30.815  0.0000E+00  0.1200E+02
    -30.610  0.0000E+00  0.1200E+02
    -30.404  0.0000E+00  0.1200E+02
    -30.198  0.0000E+00  0.1200E+02
    -29.992  0.0000E+00  0.1200E+02
    -29.786  0.0000E+00  0.1200E+02
    -29.581  0.0000E+00  0.1200E+02
    -29.375  0.0000E+00  0.1200E+02
    -29.169  0.0000E+00  0.1200E+02
    -28.963  0.0000E+00  0.1200E+02
    -28.758  0.0000E+00  0.1200E+02
    -28.552  0.0000E+00  0.1200E+02
    -28.346  0.0000E+00  0.1200E+02
    -28.140  0.0000E+00  0.1200E+02
    -27.935  0.0000E+00  0.1200E+02
    -27.729  0.0000E+00  0.1200E+02
    -27.523  0.0000E+00  0.1200E+02
    -27.317  0.0000E+00  0.1200E+02
    -27.112  0.0000E+00  0.1200E+02
    -26.906  0.0000E+00  0.1200E+02
    -26.700  0.0000E+00  0.1200E+02
    -26.494  0.0000E+00  0.1200E+02
    -26.288  0.0000E+00  0.1200E+02
    -26.083  0.0000E+00  0.1200E+02
    -25.877 -0.2833E-27  0.1200E+02
    -25.671 -0.1362E-20  0.1200E+02
    -25.465 -0.7733E-15  0.1200E+02
    -25.260 -0.4969E-10  0.1200E+02
    -25.054 -0.3831E-06  0.1200E+02
    -24.848 -0.3459E-03  0.1200E+02
    -24.642 -0.3698E-01  0.1199E+02
    -24.437 -0.3580E+00  0.1192E+02
    -24.231  0.2947E+01  0.1252E+02
    -24.025  0.1435E+02  0.1548E+02
    -23.819  0.2027E+02  0.1965E+02
    -23.614  0.5319E+02  0.3059E+02
    -23.408  0.5289E+02  0.4148E+02
    -23.202  0.2204E+02  0.4601E+02
    -22.996  0.8746E+01  0.4781E+02
    -22.790  0.1129E+01  0.4804E+02
    -22.585 -0.1867E+00  0.4800E+02
    -22.379 -0.1936E-01  0.4800E+02
    -22.173 -0.1713E-03  0.4800E+02
    -21.967 -0.1627E-06  0.4800E+02
    -21.762 -0.1735E-10  0.4800E+02
    -21.556 -0.4316E-15  0.4800E+02
    -21.350  0.0000E+00  0.4800E+02
    -21.144  0.0000E+00  0.4800E+02
    -20.939  0.0000E+00  0.4800E+02
    -20.733  0.0000E+00  0.4800E+02
    -20.527  0.0000E+00  0.4800E+02
    -20.321  0.0000E+00  0.4800E+02
    -20.115  0.0000E+00  0.4800E+02
    -19.910  0.0000E+00  0.4800E+02
    -19.704  0.0000E+00  0.4800E+02
    -19.498  0.0000E+00  0.4800E+02
    -19.292  0.0000E+00  0.4800E+02
    -19.087  0.0000E+00  0.4800E+02
    -18.881  0.0000E+00  0.4800E+02
    -18.675  0.0000E+00  0.4800E+02
    -18.469  0.0000E+00  0.4800E+02
    -18.264  0.0000E+00  0.4800E+02
    -18.058  0.0000E+00  0.4800E+02
    -17.852  0.0000E+00  0.4800E+02
    -17.646  0.0000E+00  0.4800E+02
    -17.441  0.0000E+00  0.4800E+02
    -17.235  0.0000E+00  0.4800E+02
    -17.029  0.0000E+00  0.4800E+02
    -16.823  0.0000E+00  0.4800E+02
    -16.617  0.0000E+00  0.4800E+02
    -16.412  0.0000E+00  0.4800E+02
    -16.206  0.0000E+00  0.4800E+02
    -16.000  0.0000E+00  0.4800E+02
    -15.794  0.0000E+00  0.4800E+02
    -15.589  0.0000E+00  0.4800E+02
    -15.383  0.0000E+00  0.4800E+02
    -15.177  0.0000E+00  0.4800E+02
    -14.971  0.0000E+00  0.4800E+02
    -14.766  0.0000E+00  0.4800E+02
    -14.560  0.0000E+00  0.4800E+02
    -14.354  0.0000E+00  0.4800E+02
    -14.148  0.0000E+00  0.4800E+02
    -13.943  0.0000E+00  0.4800E+02
    -13.737  0.0000E+00  0.4800E+02
    -13.531  0.0000E+00  0.4800E+02
    -13.325  0.0000E+00  0.4800E+02
    -13.119  0.0000E+00  0.4800E+02
    -12.914  0.0000E+00  0.4800E+02
    -12.708  0.0000E+00  0.4800E+02
    -12.502  0.0000E+00  0.4800E+02
    -12.296  0.0000E+00  0.4800E+02
    -12.091  0.0000E+00  0.4800E+02
    -11.885  0.0000E+00  0.4800E+02
    -11.679  0.0000E+00  0.4800E+02
    -11.473  0.0000E+00  0.4800E+02
    -11.268  0.0000E+00  0.4800E+02
    -11.062  0.0000E+00  0.4800E+02
    -10.856  0.0000E+00  0.4800E+02
    -10.650  0.0000E+00  0.4800E+02
    -10.445  0.0000E+00  0.4800E+02
    -10.239  0.0000E+00  0.4800E+02
    -10.033  0.0000E+00  0.4800E+02
     -9.827  0.0000E+00  0.4800E+02
     -9.621  0.0000E+00  0.4800E+02
     -9.416  0.0000E+00  0.4800E+02
     -9.210  0.0000E+00  0.4800E+02
     -9.004  0.0000E+00  0.4800E+02
     -8.798  0.0000E+00  0.4800E+02
     -8.593  0.0000E+00  0.4800E+02
     -8.387  0.0000E+00  0.4800E+02
     -8.181  0.0000E+00  0.4800E+02
     -7.975  0.0000E+00  0.4800E+02
     -7.770  0.0000E+00  0.4800E+02
     -7.564  0.0000E+00  0.4800E+02
     -7.358  0.0000E+00  0.4800E+02
     -7.152  0.0000E+00  0.4800E+02
     -6.946  0.0000E+00  0.4800E+02
     -6.741  0.0000E+00  0.4800E+02
     -6.535  0.0000E+00  0.4800E+02
     -6.329  0.0000E+00  0.4800E+02
     -6.123  0.0000E+00  0.4800E+02
     -5.918  0.0000E+00  0.4800E+02
     -5.712  0.0000E+00  0.4800E+02
     -5.506  0.0000E+00  0.4800E+02
     -5.300  0.0000E+00  0.4800E+02
     -5.095  0.0000E+00  0.4800E+02
     -4.889  0.0000E+00  0.4800E+02
     -4.683  0.0000E+00  0.4800E+02
     -4.477  0.0000E+00  0.4800E+02
     -4.272  0.0000E+00  0.4800E+02
     -4.066  0.0000E+00  0.4800E+02
     -3.860  0.0000E+00  0.4800E+02
     -3.654  0.0000E+00  0.4800E+02
     -3.448  0.0000E+00  0.4800E+02
     -3.243  0.0000E+00  0.4800E+02
     -3.037  0.0000E+00  0.4800E+02
     -2.831  0.0000E+00  0.4800E+02
     -2.625  0.0000E+00  0.4800E+02
     -2.420  0.0000E+00  0.4800E+02
     -2.214  0.0000E+00  0.4800E+02
     -2.008 -0.1608E-32  0.4800E+02
     -1.802 -0.2368E-25  0.4800E+02
     -1.597 -0.4150E-19  0.4800E+02
     -1.391 -0.8383E-14  0.4800E+02
     -1.185 -0.2055E-09  0.4800E+02
     -0.979 -0.5955E-06  0.4800E+02
     -0.774 -0.2015E-03  0.4800E+02
     -0.568 -0.7240E-02  0.4800E+02
     -0.362  0.5311E-02  0.4800E+02
     -0.156  0.3367E+00  0.4807E+02
      0.050  0.1024E+01  0.4828E+02
      0.255  0.1774E+01  0.4864E+02
      0.461  0.1894E+01  0.4903E+02
      0.667  0.1571E+01  0.4936E+02
      0.873  0.2472E+01  0.4987E+02
      1.078  0.3360E+01  0.5056E+02
      1.284  0.3521E+01  0.5128E+02
      1.490  0.2605E+01  0.5182E+02
      1.696  0.4218E+01  0.5269E+02
      1.901  0.4809E+01  0.5368E+02
      2.107  0.5515E+01  0.5481E+02
      2.313  0.7394E+01  0.5633E+02
      2.519  0.1020E+02  0.5843E+02
      2.724  0.1642E+02  0.6181E+02
      2.930  0.2201E+02  0.6634E+02
      3.136  0.2558E+02  0.7160E+02
      3.342  0.3067E+02  0.7791E+02
      3.548  0.3088E+02  0.8426E+02
      3.753  0.3180E+02  0.9081E+02
      3.959  0.3246E+02  0.9749E+02
      4.165  0.3163E+02  0.1040E+03
      4.371  0.2686E+02  0.1095E+03
      4.576  0.2298E+02  0.1142E+03
      4.782  0.3257E+02  0.1210E+03
      4.988  0.4086E+02  0.1294E+03
      5.194  0.4655E+02  0.1389E+03
      5.399  0.4648E+02  0.1485E+03
      5.605  0.4349E+02  0.1575E+03
      5.811  0.4187E+02  0.1661E+03
      6.017  0.4657E+02  0.1756E+03
      6.223  0.5188E+02  0.1863E+03
      6.428  0.5083E+02  0.1968E+03
      6.634  0.4456E+02  0.2059E+03
      6.840  0.3428E+02  0.2130E+03
      7.046  0.2154E+02  0.2174E+03
      7.251  0.1370E+02  0.2203E+03
      7.457  0.1340E+02  0.2230E+03
      7.663  0.1672E+02  0.2265E+03
      7.869  0.1946E+02  0.2305E+03
      8.074  0.2090E+02  0.2348E+03
      8.280  0.1652E+02  0.2382E+03
      8.486  0.7956E+01  0.2398E+03
      8.692  0.1202E+01  0.2400E+03
      8.897 -0.1755E+00  0.2400E+03
      9.103 -0.1754E-01  0.2400E+03
      9.309 -0.1822E-03  0.2400E+03
      9.515 -0.2418E-06  0.2400E+03
      9.721 -0.4005E-10  0.2400E+03
      9.926 -0.7942E-15  0.2400E+03
     10.132  0.0000E+00  0.2400E+03
     10.338  0.0000E+00  0.2400E+03
     10.544  0.0000E+00  0.2400E+03
     10.749  0.0000E+00  0.2400E+03
     10.955  0.0000E+00  0.2400E+03
     11.161  0.0000E+00  0.2400E+03
     11.367  0.0000E+00  0.2400E+03
