   30   30    1    1
  0.1623088E+02  0.5525242E-09  0.8287863E-09  0.1139058E-08  0.5000000E-15
  1.000000000000000E-004
  CAR 
 Nb - Mo - Ta - Ti - V SQS               
    198     63    120
 
  0.0000000E+00  0.0000000E+00  0.0000000E+00  0.8000000E-02
    1      -47.557147   1.000000
    2      -47.536737   1.000000
    3      -47.493414   1.000000
    4      -47.447734   1.000000
    5      -47.417140   1.000000
    6      -47.322020   1.000000
    7      -24.265614   1.000000
    8      -24.116467   1.000000
    9      -23.967117   1.000000
   10      -23.927093   1.000000
   11      -23.712463   1.000000
   12      -23.704161   1.000000
   13      -23.700981   1.000000
   14      -23.653207   1.000000
   15      -23.638517   1.000000
   16      -23.619319   1.000000
   17      -23.595844   1.000000
   18      -23.551136   1.000000
   19      -23.513034   1.000000
   20      -23.493960   1.000000
   21      -23.362423   1.000000
   22      -23.343065   1.000000
   23      -23.200383   1.000000
   24      -22.982568   1.000000
   25       -0.289386   1.000000
   26        0.995738   1.000000
   27        1.352397   1.000000
   28        2.158531   1.000000
   29        2.304987   1.000000
   30        2.378840   1.000000
   31        2.490353   1.000000
   32        2.618763   1.000000
   33        2.661182   1.000000
   34        2.746375   1.000000
   35        2.796174   1.000000
   36        2.863664   1.000000
   37        2.922875   1.000000
   38        2.974098   1.000000
   39        3.100175   1.000000
   40        3.129200   1.000000
   41        3.219471   1.000000
   42        3.320055   1.000000
   43        3.424942   1.000000
   44        3.468256   1.000000
   45        3.536682   1.000000
   46        3.584679   1.000000
   47        3.645331   1.000000
   48        3.660463   1.000000
   49        3.811022   1.000000
   50        3.850105   1.000000
   51        3.941290   1.000000
   52        3.997403   1.000000
   53        4.073553   1.000000
   54        4.111062   1.000000
   55        4.246316   1.000000
   56        4.314632   1.000000
   57        4.396541   1.000000
   58        4.442192   1.000000
   59        4.582721   1.000000
   60        4.618178   1.000000
   61        4.698513   1.000000
   62        4.744430   1.000000
   63        4.751303   1.000000
   64        4.842070   1.000000
   65        4.847332   1.000000
   66        4.939371   1.000000
   67        4.954131   1.000000
   68        5.038514   1.000000
   69        5.055828   1.000000
   70        5.106538   1.000000
   71        5.163306   1.000000
   72        5.190674   1.000000
   73        5.251230   1.000000
   74        5.297101   1.000000
   75        5.308270   1.000000
   76        5.324193   1.000000
   77        5.344656   1.000000
   78        5.462100   1.000000
   79        5.526602   1.000000
   80        5.614335   1.000000
   81        5.783266   1.000011
   82        5.829540   1.000046
   83        5.877729   1.000178
   84        5.914307   1.000456
   85        5.962070   1.001384
   86        6.023681   1.004752
   87        6.079648   1.011828
   88        6.109633   1.017604
   89        6.125480   1.021107
   90        6.140574   1.024585
   91        6.167484   1.030520
   92        6.198371   1.035049
   93        6.225880   1.034239
   94        6.287128   0.998334
   95        6.446437   0.532014
   96        6.472582   0.421784
   97        6.561828   0.109190
   98        6.570273   0.088545
   99        6.616297   0.007083
  100        6.705762  -0.035288
  101        6.764479  -0.025270
  102        6.803129  -0.016607
  103        6.873181  -0.005794
  104        6.885912  -0.004618
  105        6.899290  -0.003598
  106        7.005749  -0.000338
  107        7.243703  -0.000000
  108        7.392560  -0.000000
  109        7.424852  -0.000000
  110        7.509880  -0.000000
  111        7.889593  -0.000000
  112        8.049839  -0.000000
  113        8.190965  -0.000000
  114        8.282489  -0.000000
  115        8.326151  -0.000000
  116        8.344432  -0.000000
  117        8.364369  -0.000000
  118        8.394987  -0.000000
  119        8.486455  -0.000000
  120        8.525771  -0.000000
 
  0.2000000E+00 -0.1387779E-16  0.0000000E+00  0.1600000E-01
    1      -47.554415   1.000000
    2      -47.531503   1.000000
    3      -47.491051   1.000000
    4      -47.446776   1.000000
    5      -47.416577   1.000000
    6      -47.333323   1.000000
    7      -24.173561   1.000000
    8      -24.104493   1.000000
    9      -23.960226   1.000000
   10      -23.921382   1.000000
   11      -23.710471   1.000000
   12      -23.706186   1.000000
   13      -23.699278   1.000000
   14      -23.654865   1.000000
   15      -23.637588   1.000000
   16      -23.623737   1.000000
   17      -23.598106   1.000000
   18      -23.554077   1.000000
   19      -23.522619   1.000000
   20      -23.496451   1.000000
   21      -23.367760   1.000000
   22      -23.348561   1.000000
   23      -23.202381   1.000000
   24      -23.104393   1.000000
   25        0.019448   1.000000
   26        1.268346   1.000000
   27        1.613510   1.000000
   28        2.196143   1.000000
   29        2.517248   1.000000
   30        2.615443   1.000000
   31        2.660338   1.000000
   32        2.786750   1.000000
   33        2.813673   1.000000
   34        2.857619   1.000000
   35        2.989445   1.000000
   36        3.059125   1.000000
   37        3.108082   1.000000
   38        3.202795   1.000000
   39        3.238132   1.000000
   40        3.299376   1.000000
   41        3.346215   1.000000
   42        3.400445   1.000000
   43        3.458764   1.000000
   44        3.502778   1.000000
   45        3.630441   1.000000
   46        3.670691   1.000000
   47        3.736172   1.000000
   48        3.834140   1.000000
   49        3.886532   1.000000
   50        3.895788   1.000000
   51        4.016860   1.000000
   52        4.093145   1.000000
   53        4.123846   1.000000
   54        4.212235   1.000000
   55        4.267944   1.000000
   56        4.344658   1.000000
   57        4.418544   1.000000
   58        4.500181   1.000000
   59        4.618509   1.000000
   60        4.673383   1.000000
   61        4.733804   1.000000
   62        4.864832   1.000000
   63        4.882489   1.000000
   64        4.952915   1.000000
   65        4.985206   1.000000
   66        5.019190   1.000000
   67        5.067883   1.000000
   68        5.128990   1.000000
   69        5.146504   1.000000
   70        5.157468   1.000000
   71        5.228411   1.000000
   72        5.257312   1.000000
   73        5.319800   1.000000
   74        5.337534   1.000000
   75        5.418119   1.000000
   76        5.449612   1.000000
   77        5.467988   1.000000
   78        5.500796   1.000000
   79        5.544475   1.000000
   80        5.586993   1.000000
   81        5.599015   1.000000
   82        5.696239   1.000001
   83        5.748570   1.000004
   84        5.810426   1.000026
   85        5.861417   1.000115
   86        5.910208   1.000412
   87        5.938564   1.000814
   88        6.028473   1.005179
   89        6.119514   1.019762
   90        6.135748   1.023468
   91        6.173374   1.031655
   92        6.209390   1.035457
   93        6.237185   1.031798
   94        6.274393   1.011063
   95        6.364754   0.839179
   96        6.382240   0.783089
   97        6.439761   0.560122
   98        6.469008   0.436733
   99        6.535212   0.185790
  100        6.577318   0.072699
  101        6.602473   0.026215
  102        6.652714  -0.024442
  103        6.736275  -0.031350
  104        6.764366  -0.025296
  105        6.796586  -0.017989
  106        6.843998  -0.009366
  107        6.860687  -0.007166
  108        7.068305  -0.000062
  109        7.169499  -0.000003
  110        7.269864  -0.000000
  111        7.577480  -0.000000
  112        7.604870  -0.000000
  113        7.655755  -0.000000
  114        7.702803  -0.000000
  115        7.801348  -0.000000
  116        7.959427  -0.000000
  117        8.011895  -0.000000
  118        8.068591  -0.000000
  119        8.086227  -0.000000
  120        8.122911  -0.000000
 
  0.4000000E+00 -0.2775558E-16  0.0000000E+00  0.1600000E-01
    1      -47.551458   1.000000
    2      -47.522120   1.000000
    3      -47.484900   1.000000
    4      -47.443852   1.000000
    5      -47.414723   1.000000
    6      -47.355708   1.000000
    7      -24.127239   1.000000
    8      -23.983011   1.000000
    9      -23.934862   1.000000
   10      -23.817045   1.000000
   11      -23.717093   1.000000
   12      -23.708807   1.000000
   13      -23.687461   1.000000
   14      -23.656079   1.000000
   15      -23.635826   1.000000
   16      -23.625779   1.000000
   17      -23.602336   1.000000
   18      -23.559789   1.000000
   19      -23.543814   1.000000
   20      -23.501312   1.000000
   21      -23.440819   1.000000
   22      -23.370042   1.000000
   23      -23.340223   1.000000
   24      -23.197176   1.000000
   25        0.848759   1.000000
   26        1.788021   1.000000
   27        2.117985   1.000000
   28        2.334251   1.000000
   29        2.413763   1.000000
   30        2.782142   1.000000
   31        2.837020   1.000000
   32        3.014361   1.000000
   33        3.119151   1.000000
   34        3.201791   1.000000
   35        3.255466   1.000000
   36        3.297535   1.000000
   37        3.373604   1.000000
   38        3.401155   1.000000
   39        3.493565   1.000000
   40        3.553349   1.000000
   41        3.621331   1.000000
   42        3.658799   1.000000
   43        3.673976   1.000000
   44        3.761828   1.000000
   45        3.867371   1.000000
   46        3.871668   1.000000
   47        3.939525   1.000000
   48        3.969780   1.000000
   49        4.072850   1.000000
   50        4.101852   1.000000
   51        4.233471   1.000000
   52        4.285999   1.000000
   53        4.345152   1.000000
   54        4.427413   1.000000
   55        4.491204   1.000000
   56        4.555285   1.000000
   57        4.626964   1.000000
   58        4.673465   1.000000
   59        4.702533   1.000000
   60        4.762173   1.000000
   61        4.794404   1.000000
   62        4.837806   1.000000
   63        4.895521   1.000000
   64        4.925472   1.000000
   65        4.958458   1.000000
   66        5.041574   1.000000
   67        5.065094   1.000000
   68        5.094287   1.000000
   69        5.133558   1.000000
   70        5.193512   1.000000
   71        5.245208   1.000000
   72        5.295635   1.000000
   73        5.333170   1.000000
   74        5.377355   1.000000
   75        5.423805   1.000000
   76        5.481056   1.000000
   77        5.535518   1.000000
   78        5.560981   1.000000
   79        5.573409   1.000000
   80        5.617891   1.000000
   81        5.709853   1.000001
   82        5.756925   1.000005
   83        5.790570   1.000014
   84        5.831687   1.000049
   85        5.882234   1.000201
   86        5.927914   1.000634
   87        5.985303   1.002264
   88        6.021688   1.004583
   89        6.062052   1.009084
   90        6.088368   1.013371
   91        6.118181   1.019465
   92        6.153848   1.027616
   93        6.188133   1.034000
   94        6.216330   1.035244
   95        6.222526   1.034693
   96        6.307751   0.970324
   97        6.348713   0.884293
   98        6.380837   0.787839
   99        6.424197   0.624605
  100        6.429959   0.600954
  101        6.475886   0.408041
  102        6.522133   0.229445
  103        6.531866   0.196606
  104        6.615179   0.008471
  105        6.618942   0.003909
  106        6.692372  -0.035283
  107        6.745586  -0.029482
  108        6.772353  -0.023449
  109        6.799201  -0.017431
  110        6.867143  -0.006429
  111        6.905173  -0.003213
  112        6.950716  -0.001246
  113        7.231772  -0.000000
  114        7.352238  -0.000000
  115        7.374380  -0.000000
  116        7.502284  -0.000000
  117        7.586314  -0.000000
  118        7.606286  -0.000000
  119        7.722989  -0.000000
  120        7.829014  -0.000000
 
  0.0000000E+00  0.2000000E+00  0.1387779E-16  0.1600000E-01
    1      -47.557048   1.000000
    2      -47.536564   1.000000
    3      -47.493371   1.000000
    4      -47.447966   1.000000
    5      -47.417222   1.000000
    6      -47.322018   1.000000
    7      -24.265618   1.000000
    8      -24.115420   1.000000
    9      -23.963773   1.000000
   10      -23.926021   1.000000
   11      -23.712572   1.000000
   12      -23.704333   1.000000
   13      -23.700973   1.000000
   14      -23.653285   1.000000
   15      -23.638517   1.000000
   16      -23.619204   1.000000
   17      -23.595740   1.000000
   18      -23.551066   1.000000
   19      -23.513051   1.000000
   20      -23.494027   1.000000
   21      -23.364101   1.000000
   22      -23.347301   1.000000
   23      -23.200732   1.000000
   24      -22.982571   1.000000
   25       -0.159489   1.000000
   26        1.060043   1.000000
   27        1.472186   1.000000
   28        1.690459   1.000000
   29        2.267995   1.000000
   30        2.440343   1.000000
   31        2.516083   1.000000
   32        2.641223   1.000000
   33        2.652927   1.000000
   34        2.739928   1.000000
   35        2.831192   1.000000
   36        2.891249   1.000000
   37        2.936528   1.000000
   38        2.985929   1.000000
   39        3.053688   1.000000
   40        3.088452   1.000000
   41        3.236404   1.000000
   42        3.274453   1.000000
   43        3.390045   1.000000
   44        3.464902   1.000000
   45        3.554670   1.000000
   46        3.637825   1.000000
   47        3.656566   1.000000
   48        3.765303   1.000000
   49        3.796195   1.000000
   50        3.880208   1.000000
   51        3.950563   1.000000
   52        4.022433   1.000000
   53        4.048907   1.000000
   54        4.103230   1.000000
   55        4.177839   1.000000
   56        4.258781   1.000000
   57        4.356650   1.000000
   58        4.520708   1.000000
   59        4.603333   1.000000
   60        4.665908   1.000000
   61        4.707045   1.000000
   62        4.812327   1.000000
   63        4.846408   1.000000
   64        4.895445   1.000000
   65        4.941961   1.000000
   66        4.973851   1.000000
   67        5.029837   1.000000
   68        5.083391   1.000000
   69        5.103644   1.000000
   70        5.134610   1.000000
   71        5.187218   1.000000
   72        5.216976   1.000000
   73        5.254881   1.000000
   74        5.314941   1.000000
   75        5.356849   1.000000
   76        5.383676   1.000000
   77        5.432076   1.000000
   78        5.452674   1.000000
   79        5.564233   1.000000
   80        5.596690   1.000000
   81        5.791446   1.000015
   82        5.811643   1.000027
   83        5.883641   1.000209
   84        5.912968   1.000441
   85        5.949543   1.001047
   86        5.966135   1.001512
   87        5.999745   1.003024
   88        6.050281   1.007524
   89        6.089674   1.013612
   90        6.107713   1.017197
   91        6.144215   1.025426
   92        6.183931   1.033419
   93        6.221406   1.034820
   94        6.257899   1.022989
   95        6.311552   0.964090
   96        6.320895   0.947274
   97        6.388081   0.762873
   98        6.451450   0.510826
   99        6.503509   0.297495
  100        6.752832  -0.027913
  101        6.807656  -0.015682
  102        6.831833  -0.011249
  103        6.896032  -0.003827
  104        6.972895  -0.000752
  105        7.057444  -0.000085
  106        7.087211  -0.000036
  107        7.218727  -0.000000
  108        7.405155  -0.000000
  109        7.433277  -0.000000
  110        7.512034  -0.000000
  111        7.636460  -0.000000
  112        7.695470  -0.000000
  113        7.823137  -0.000000
  114        8.043558  -0.000000
  115        8.118156  -0.000000
  116        8.245479  -0.000000
  117        8.271315  -0.000000
  118        8.327089  -0.000000
  119        8.365713  -0.000000
  120        8.408673  -0.000000
 
  0.2000000E+00  0.2000000E+00 -0.4857226E-16  0.1600000E-01
    1      -47.554539   1.000000
    2      -47.531648   1.000000
    3      -47.491077   1.000000
    4      -47.446556   1.000000
    5      -47.416500   1.000000
    6      -47.333326   1.000000
    7      -24.173670   1.000000
    8      -24.105444   1.000000
    9      -23.963838   1.000000
   10      -23.922021   1.000000
   11      -23.710469   1.000000
   12      -23.706215   1.000000
   13      -23.699214   1.000000
   14      -23.654910   1.000000
   15      -23.637519   1.000000
   16      -23.623683   1.000000
   17      -23.598115   1.000000
   18      -23.554111   1.000000
   19      -23.522569   1.000000
   20      -23.496399   1.000000
   21      -23.366473   1.000000
   22      -23.344101   1.000000
   23      -23.202058   1.000000
   24      -23.104381   1.000000
   25        0.024131   1.000000
   26        1.229150   1.000000
   27        1.642024   1.000000
   28        2.173842   1.000000
   29        2.469518   1.000000
   30        2.602744   1.000000
   31        2.616165   1.000000
   32        2.714244   1.000000
   33        2.765654   1.000000
   34        2.850911   1.000000
   35        2.910118   1.000000
   36        3.009145   1.000000
   37        3.105125   1.000000
   38        3.162265   1.000000
   39        3.212201   1.000000
   40        3.265371   1.000000
   41        3.312183   1.000000
   42        3.327322   1.000000
   43        3.532436   1.000000
   44        3.571548   1.000000
   45        3.625651   1.000000
   46        3.698275   1.000000
   47        3.756876   1.000000
   48        3.830028   1.000000
   49        3.936158   1.000000
   50        3.987468   1.000000
   51        4.013751   1.000000
   52        4.104962   1.000000
   53        4.184347   1.000000
   54        4.247178   1.000000
   55        4.308497   1.000000
   56        4.364085   1.000000
   57        4.470836   1.000000
   58        4.552683   1.000000
   59        4.626680   1.000000
   60        4.705576   1.000000
   61        4.758369   1.000000
   62        4.779017   1.000000
   63        4.868117   1.000000
   64        4.886399   1.000000
   65        4.922361   1.000000
   66        5.009687   1.000000
   67        5.040681   1.000000
   68        5.078576   1.000000
   69        5.120509   1.000000
   70        5.143781   1.000000
   71        5.178425   1.000000
   72        5.198374   1.000000
   73        5.225439   1.000000
   74        5.281782   1.000000
   75        5.311897   1.000000
   76        5.378631   1.000000
   77        5.457431   1.000000
   78        5.480997   1.000000
   79        5.557767   1.000000
   80        5.626886   1.000000
   81        5.679946   1.000000
   82        5.739663   1.000003
   83        5.808212   1.000025
   84        5.825046   1.000041
   85        5.872989   1.000157
   86        5.938491   1.000813
   87        5.985176   1.002258
   88        6.058513   1.008592
   89        6.078229   1.011588
   90        6.123169   1.020583
   91        6.153365   1.027508
   92        6.183628   1.033375
   93        6.219438   1.035013
   94        6.242869   1.029984
   95        6.337241   0.912632
   96        6.384042   0.776930
   97        6.437192   0.570883
   98        6.511228   0.268524
   99        6.568232   0.093369
  100        6.615227   0.008411
  101        6.659206  -0.027618
  102        6.716694  -0.034387
  103        6.772331  -0.023454
  104        6.813008  -0.014625
  105        6.838406  -0.010202
  106        6.901112  -0.003475
  107        6.958692  -0.001042
  108        7.010740  -0.000297
  109        7.097731  -0.000026
  110        7.133774  -0.000008
  111        7.212915  -0.000001
  112        7.574293  -0.000000
  113        7.897376  -0.000000
  114        8.001395  -0.000000
  115        8.074827  -0.000000
  116        8.107916  -0.000000
  117        8.257725  -0.000000
  118        8.322563  -0.000000
  119        8.359732  -0.000000
  120        8.464930  -0.000000
 
  0.4000000E+00  0.2000000E+00 -0.5551115E-16  0.1600000E-01
    1      -47.551717   1.000000
    2      -47.522340   1.000000
    3      -47.484884   1.000000
    4      -47.443488   1.000000
    5      -47.414622   1.000000
    6      -47.355712   1.000000
    7      -24.128572   1.000000
    8      -23.986081   1.000000
    9      -23.939301   1.000000
   10      -23.817017   1.000000
   11      -23.717097   1.000000
   12      -23.708788   1.000000
   13      -23.687378   1.000000
   14      -23.656092   1.000000
   15      -23.635794   1.000000
   16      -23.625689   1.000000
   17      -23.602377   1.000000
   18      -23.559842   1.000000
   19      -23.543722   1.000000
   20      -23.501258   1.000000
   21      -23.440792   1.000000
   22      -23.363098   1.000000
   23      -23.337520   1.000000
   24      -23.196734   1.000000
   25        0.753931   1.000000
   26        1.728732   1.000000
   27        2.080091   1.000000
   28        2.281743   1.000000
   29        2.415901   1.000000
   30        2.551205   1.000000
   31        2.860002   1.000000
   32        3.057545   1.000000
   33        3.149457   1.000000
   34        3.220045   1.000000
   35        3.298502   1.000000
   36        3.320581   1.000000
   37        3.397908   1.000000
   38        3.458052   1.000000
   39        3.466769   1.000000
   40        3.572789   1.000000
   41        3.641262   1.000000
   42        3.659155   1.000000
   43        3.745974   1.000000
   44        3.783029   1.000000
   45        3.820304   1.000000
   46        3.860585   1.000000
   47        3.934120   1.000000
   48        4.009432   1.000000
   49        4.071671   1.000000
   50        4.142829   1.000000
   51        4.190919   1.000000
   52        4.264134   1.000000
   53        4.319201   1.000000
   54        4.349861   1.000000
   55        4.415428   1.000000
   56        4.468823   1.000000
   57        4.522934   1.000000
   58        4.605840   1.000000
   59        4.674654   1.000000
   60        4.793672   1.000000
   61        4.820619   1.000000
   62        4.839949   1.000000
   63        4.903896   1.000000
   64        4.955377   1.000000
   65        4.991814   1.000000
   66        5.046130   1.000000
   67        5.074937   1.000000
   68        5.126319   1.000000
   69        5.159475   1.000000
   70        5.207338   1.000000
   71        5.258988   1.000000
   72        5.271331   1.000000
   73        5.311567   1.000000
   74        5.370380   1.000000
   75        5.404512   1.000000
   76        5.448071   1.000000
   77        5.473110   1.000000
   78        5.570245   1.000000
   79        5.608863   1.000000
   80        5.674457   1.000000
   81        5.694998   1.000001
   82        5.758218   1.000005
   83        5.804473   1.000022
   84        5.828796   1.000045
   85        5.849771   1.000083
   86        5.875098   1.000166
   87        5.955772   1.001204
   88        5.966814   1.001534
   89        6.016428   1.004159
   90        6.054430   1.008049
   91        6.080918   1.012045
   92        6.121694   1.020250
   93        6.142224   1.024967
   94        6.183220   1.033314
   95        6.209903   1.035455
   96        6.238091   1.031537
   97        6.283119   1.002696
   98        6.313278   0.961143
   99        6.335408   0.916852
  100        6.369545   0.824504
  101        6.409898   0.681709
  102        6.470040   0.432406
  103        6.511545   0.267355
  104        6.549382   0.142873
  105        6.596070   0.036580
  106        6.615789   0.007710
  107        6.737782  -0.031062
  108        6.843045  -0.009505
  109        6.888135  -0.004434
  110        6.973268  -0.000745
  111        7.045315  -0.000119
  112        7.386128  -0.000000
  113        7.505297  -0.000000
  114        7.568765  -0.000000
  115        7.648318  -0.000000
  116        7.763032  -0.000000
  117        7.826380  -0.000000
  118        7.886488  -0.000000
  119        7.950155  -0.000000
  120        7.995098  -0.000000
 
 -0.4000000E+00  0.2000000E+00 -0.3908332E-16  0.1600000E-01
    1      -47.551453   1.000000
    2      -47.522119   1.000000
    3      -47.484899   1.000000
    4      -47.443859   1.000000
    5      -47.414723   1.000000
    6      -47.355708   1.000000
    7      -24.127224   1.000000
    8      -23.982997   1.000000
    9      -23.934833   1.000000
   10      -23.817052   1.000000
   11      -23.717229   1.000000
   12      -23.708785   1.000000
   13      -23.687487   1.000000
   14      -23.656112   1.000000
   15      -23.635708   1.000000
   16      -23.625766   1.000000
   17      -23.602294   1.000000
   18      -23.559789   1.000000
   19      -23.543803   1.000000
   20      -23.501314   1.000000
   21      -23.440814   1.000000
   22      -23.370086   1.000000
   23      -23.340270   1.000000
   24      -23.197188   1.000000
   25        1.111245   1.000000
   26        1.770261   1.000000
   27        1.894517   1.000000
   28        2.183540   1.000000
   29        2.460688   1.000000
   30        2.688944   1.000000
   31        2.781187   1.000000
   32        2.898052   1.000000
   33        3.130470   1.000000
   34        3.197066   1.000000
   35        3.275018   1.000000
   36        3.308143   1.000000
   37        3.353261   1.000000
   38        3.437674   1.000000
   39        3.482700   1.000000
   40        3.551666   1.000000
   41        3.594956   1.000000
   42        3.639790   1.000000
   43        3.712600   1.000000
   44        3.766370   1.000000
   45        3.838266   1.000000
   46        3.932366   1.000000
   47        3.974539   1.000000
   48        4.062404   1.000000
   49        4.134944   1.000000
   50        4.192633   1.000000
   51        4.217556   1.000000
   52        4.276759   1.000000
   53        4.333822   1.000000
   54        4.438918   1.000000
   55        4.524083   1.000000
   56        4.616282   1.000000
   57        4.670724   1.000000
   58        4.703999   1.000000
   59        4.714671   1.000000
   60        4.751782   1.000000
   61        4.768477   1.000000
   62        4.844579   1.000000
   63        4.856801   1.000000
   64        4.925989   1.000000
   65        4.962111   1.000000
   66        5.019245   1.000000
   67        5.073647   1.000000
   68        5.117925   1.000000
   69        5.145434   1.000000
   70        5.166730   1.000000
   71        5.171639   1.000000
   72        5.281142   1.000000
   73        5.309856   1.000000
   74        5.351959   1.000000
   75        5.420646   1.000000
   76        5.432825   1.000000
   77        5.484372   1.000000
   78        5.510455   1.000000
   79        5.603966   1.000000
   80        5.655065   1.000000
   81        5.669746   1.000000
   82        5.731069   1.000002
   83        5.754049   1.000004
   84        5.802357   1.000020
   85        5.907816   1.000388
   86        5.940258   1.000847
   87        5.986309   1.002311
   88        6.014967   1.004048
   89        6.062618   1.009165
   90        6.091491   1.013952
   91        6.147131   1.026095
   92        6.159877   1.028938
   93        6.190826   1.034330
   94        6.225845   1.034244
   95        6.263326   1.019593
   96        6.315562   0.957135
   97        6.346078   0.891097
   98        6.392500   0.747124
   99        6.414822   0.662337
  100        6.449050   0.520977
  101        6.482218   0.381946
  102        6.514675   0.255927
  103        6.551760   0.136140
  104        6.596503   0.035849
  105        6.613397   0.010739
  106        6.654731  -0.025498
  107        6.694040  -0.035362
  108        6.716054  -0.034458
  109        6.813958  -0.014441
  110        6.870550  -0.006064
  111        7.005283  -0.000342
  112        7.032078  -0.000170
  113        7.062390  -0.000074
  114        7.177461  -0.000002
  115        7.451815  -0.000000
  116        7.619633  -0.000000
  117        7.836693  -0.000000
  118        7.849803  -0.000000
  119        7.905088  -0.000000
  120        7.941022  -0.000000
 
 -0.2000000E+00  0.2000000E+00  0.1006140E-15  0.1600000E-01
    1      -47.554205   1.000000
    2      -47.531257   1.000000
    3      -47.491004   1.000000
    4      -47.447154   1.000000
    5      -47.416701   1.000000
    6      -47.333320   1.000000
    7      -24.173393   1.000000
    8      -24.102971   1.000000
    9      -23.954368   1.000000
   10      -23.919945   1.000000
   11      -23.710702   1.000000
   12      -23.706236   1.000000
   13      -23.699378   1.000000
   14      -23.654924   1.000000
   15      -23.637576   1.000000
   16      -23.623630   1.000000
   17      -23.597968   1.000000
   18      -23.553978   1.000000
   19      -23.522687   1.000000
   20      -23.496533   1.000000
   21      -23.371605   1.000000
   22      -23.354511   1.000000
   23      -23.202904   1.000000
   24      -23.104403   1.000000
   25        0.256591   1.000000
   26        1.373638   1.000000
   27        1.622401   1.000000
   28        1.816908   1.000000
   29        2.370385   1.000000
   30        2.669754   1.000000
   31        2.757800   1.000000
   32        2.843848   1.000000
   33        2.861128   1.000000
   34        2.903414   1.000000
   35        3.042375   1.000000
   36        3.078740   1.000000
   37        3.102126   1.000000
   38        3.167570   1.000000
   39        3.188844   1.000000
   40        3.236991   1.000000
   41        3.292574   1.000000
   42        3.359857   1.000000
   43        3.448875   1.000000
   44        3.520078   1.000000
   45        3.591475   1.000000
   46        3.663391   1.000000
   47        3.733591   1.000000