 vasp.5.4.4.18Apr17-6-g9f103f2a35 (build Aug 09 2018 16:20:53) complex          
  
 executed on             LinuxIFC date 2020.04.28  21:18:37
 running on   32 total cores
 distrk:  each k-point on   32 cores,    1 groups
 distr:  one band on NCORES_PER_BAND=   4 cores,    8 groups


--------------------------------------------------------------------------------------------------------


 INCAR:
 POTCAR:    PAW_PBE Nb_sv 25May2007               
 POTCAR:    PAW_PBE Mo 08Apr2002                  
 POTCAR:    PAW_PBE Ta 17Jan2003                  
 POTCAR:    PAW_PBE Ti 08Apr2002                  
 POTCAR:    PAW_PBE V 08Apr2002                   
 POTCAR:    PAW_PBE Nb_sv 25May2007               
   VRHFIN =Nb: 4p5s4d                                                           
   LEXCH  = PE                                                                  
   EATOM  =  1555.1913 eV,  114.3033 Ry                                         
                                                                                
   TITEL  = PAW_PBE Nb_sv 25May2007                                             
   LULTRA =        F    use ultrasoft PP ?                                      
   IUNSCR =        1    unscreen: 0-lin 1-nonlin 2-no                           
   RPACOR =    1.800    partial core radius                                     
   POMASS =   92.910; ZVAL   =   13.000    mass and valenz                      
   RCORE  =    2.400    outmost cutoff radius                                   
   RWIGS  =    2.400; RWIGS  =    1.270    wigner-seitz radius (au A)           
   ENMAX  =  293.235; ENMIN  =  219.927 eV                                      
   ICORE  =        3    local potential                                         
   LCOR   =        T    correct aug charges                                     
   LPAW   =        T    paw PP                                                  
   EAUG   =  455.659                                                            
   DEXC   =    0.000                                                            
   RMAX   =    2.456    core radius for proj-oper                               
   RAUG   =    1.300    factor for augmentation sphere                          
   RDEP   =    2.451    radius for radial grids                                 
   RDEPT  =    1.956    core radius for aug-charge                              
                                                                                
   Atomic configuration                                                         
   11 entries                                                                   
     n  l   j            E        occ.                                          
     1  0  0.50    -18805.2457   2.0000                                         
     2  0  0.50     -2630.2869   2.0000                                         
     2  1  1.50     -2348.4046   6.0000                                         
     3  0  0.50      -438.8757   2.0000                                         
     3  1  1.50      -346.7588   6.0000                                         
     3  2  2.50      -196.2560  10.0000                                         
     4  0  0.50       -58.3859   2.0000                                         
     5  0  0.50        -3.9816   1.0000                                         
     4  1  1.50       -34.5141   6.0000                                         
     4  2  2.50        -3.0408   4.0000                                         
     4  3  2.50        -1.3606   0.0000                                         
   Description                                                                  
     l       E           TYP  RCUT    TYP  RCUT                                 
     0    -58.3859094     23  2.200                                             
     0     -3.9816262     23  2.200                                             
     1    -34.5140738     23  2.200                                             
     1     13.6058260     23  2.200                                             
     2     -3.0408010     23  2.200                                             
     2     -0.1283038     23  2.200                                             
     3     -1.3605826     23  2.400                                             
  local pseudopotential read in
  partial core-charges read in
  partial kinetic energy density read in
  atomic valenz-charges read in
  non local Contribution for L=           0  read in
    real space projection operators read in
  non local Contribution for L=           0  read in
    real space projection operators read in
  non local Contribution for L=           1  read in
    real space projection operators read in
  non local Contribution for L=           1  read in
    real space projection operators read in
  non local Contribution for L=           2  read in
    real space projection operators read in
  non local Contribution for L=           2  read in
    real space projection operators read in
    PAW grid and wavefunctions read in
 
   number of l-projection  operators is LMAX  =           6
   number of lm-projection operators is LMMAX =          18
 
 POTCAR:    PAW_PBE Mo 08Apr2002                  
   VRHFIN =Mo: 4p5s4d                                                           
   LEXCH  = PE                                                                  
   EATOM  =   217.5176 eV,   15.9871 Ry                                         
                                                                                
   TITEL  = PAW_PBE Mo 08Apr2002                                                
   LULTRA =        F    use ultrasoft PP ?                                      
   IUNSCR =        1    unscreen: 0-lin 1-nonlin 2-no                           
   RPACOR =    2.200    partial core radius                                     
   POMASS =   95.940; ZVAL   =    6.000    mass and valenz                      
   RCORE  =    2.750    outmost cutoff radius                                   
   RWIGS  =    2.750; RWIGS  =    1.455    wigner-seitz radius (au A)           
   ENMAX  =  224.584; ENMIN  =  168.438 eV                                      
   RCLOC  =    2.111    cutoff for local pot                                    
   LCOR   =        T    correct aug charges                                     
   LPAW   =        T    paw PP                                                  
   EAUG   =  345.278                                                            
   DEXC   =    0.000                                                            
   RMAX   =    2.821    core radius for proj-oper                               
   RAUG   =    1.300    factor for augmentation sphere                          
   RDEP   =    2.815    radius for radial grids                                 
   RDEPT  =    2.211    core radius for aug-charge                              
                                                                                
   Atomic configuration                                                         
   12 entries                                                                   
     n  l   j            E        occ.                                          
     1  0  0.50    -19819.0341   2.0000                                         
     2  0  0.50     -2799.0127   2.0000                                         
     2  1  1.50     -2502.0276   6.0000                                         
     3  0  0.50      -476.4448   2.0000                                         
     3  1  1.50      -379.1496   6.0000                                         
     3  2  2.50      -220.9367  10.0000                                         
     4  0  0.50       -64.3378   2.0000                                         
     4  1  1.50       -38.4773   6.0000                                         
     4  2  2.50        -3.7535   5.0000                                         
     5  0  0.50        -4.0862   1.0000                                         
     5  1  0.50        -2.7701   0.0000                                         
     4  3  2.50        -1.3606   0.0000                                         
   Description                                                                  
     l       E           TYP  RCUT    TYP  RCUT                                 
     2     -3.7534765     23  2.500                                             
     2     -5.1140591     23  2.500                                             
     0     -4.0861560     23  2.600                                             
     0     13.6058260     23  2.600                                             
     1      5.4423304     23  2.750                                             
     1     27.2116520     23  2.750                                             
  local pseudopotential read in
  partial core-charges read in
  partial kinetic energy density read in
  atomic valenz-charges read in
  non local Contribution for L=           2  read in
    real space projection operators read in
  non local Contribution for L=           2  read in
    real space projection operators read in
  non local Contribution for L=           0  read in
    real space projection operators read in
  non local Contribution for L=           0  read in
    real space projection operators read in
  non local Contribution for L=           1  read in
    real space projection operators read in
  non local Contribution for L=           1  read in
    real space projection operators read in
    PAW grid and wavefunctions read in
 
   number of l-projection  operators is LMAX  =           6
   number of lm-projection operators is LMMAX =          18
 
 POTCAR:    PAW_PBE Ta 17Jan2003                  
   VRHFIN =Ta:  6s5d                                                            
   LEXCH  = PE                                                                  
   EATOM  =   130.6506 eV,    9.6025 Ry                                         
                                                                                
   TITEL  = PAW_PBE Ta 17Jan2003                                                
   LULTRA =        F    use ultrasoft PP ?                                      
   IUNSCR =        1    unscreen: 0-lin 1-nonlin 2-no                           
   RPACOR =    2.330    partial core radius                                     
   POMASS =  180.948; ZVAL   =    5.000    mass and valenz                      
   RCORE  =    2.900    outmost cutoff radius                                   
   RWIGS  =    2.840; RWIGS  =    1.503    wigner-seitz radius (au A)           
   ENMAX  =  223.667; ENMIN  =  167.750 eV                                      
   RCLOC  =    2.205    cutoff for local pot                                    
   LCOR   =        T    correct aug charges                                     
   LPAW   =        T    paw PP                                                  
   EAUG   =  332.075                                                            
   DEXC   =    0.000                                                            
   RMAX   =    2.970    core radius for proj-oper                               
   RAUG   =    1.300    factor for augmentation sphere                          
   RDEP   =    3.060    radius for radial grids                                 
   RDEPT  =    2.354    core radius for aug-charge                              
                                                                                
   Atomic configuration                                                         
   16 entries                                                                   
     n  l   j            E        occ.                                          
     1  0  0.50    -67341.2807   2.0000                                         
     2  0  0.50    -11566.9376   2.0000                                         
     2  1  1.50    -10134.1182   6.0000                                         
     3  0  0.50     -2648.5620   2.0000                                         
     3  1  1.50     -2222.6012   6.0000                                         
     3  2  2.50     -1726.3120  10.0000                                         
     4  0  0.50      -538.6961   2.0000                                         
     4  1  1.50      -399.0129   6.0000                                         
     4  2  2.50      -220.3959  10.0000                                         
     4  3  3.50       -23.0374  14.0000                                         
     5  0  0.50       -71.2901   2.0000                                         
     5  1  1.50       -37.8225   6.0000                                         
     5  2  2.50        -2.6455   4.0000                                         
     6  0  0.50        -4.9623   1.0000                                         
     6  1  1.50        -1.3606   0.0000                                         
     5  3  2.50        -1.3606   0.0000                                         
   Description                                                                  
     l       E           TYP  RCUT    TYP  RCUT                                 
     2     -2.6455043     23  2.500                                             
     2     -0.6258895     23  2.500                                             
     0     -4.9622780     23  2.500                                             
     0      4.7531321     23  2.500                                             
     1     -1.3605826     23  2.900                                             
     1     27.2116520     23  2.900                                             
  local pseudopotential read in
  partial core-charges read in
  partial kinetic energy density read in
  atomic valenz-charges read in
  non local Contribution for L=           2  read in
    real space projection operators read in
  non local Contribution for L=           2  read in
    real space projection operators read in
  non local Contribution for L=           0  read in
    real space projection operators read in
  non local Contribution for L=           0  read in
    real space projection operators read in
  non local Contribution for L=           1  read in
    real space projection operators read in
  non local Contribution for L=           1  read in
    real space projection operators read in
    PAW grid and wavefunctions read in
 
   number of l-projection  operators is LMAX  =           6
   number of lm-projection operators is LMMAX =          18
 
 POTCAR:    PAW_PBE Ti 08Apr2002                  
   VRHFIN =Ti: d3 s1                                                            
   LEXCH  = PE                                                                  
   EATOM  =    94.7928 eV,    6.9671 Ry                                         
                                                                                
   TITEL  = PAW_PBE Ti 08Apr2002                                                
   LULTRA =        F    use ultrasoft PP ?                                      
   IUNSCR =        1    unscreen: 0-lin 1-nonlin 2-no                           
   RPACOR =    2.200    partial core radius                                     
   POMASS =   47.880; ZVAL   =    4.000    mass and valenz                      
   RCORE  =    2.800    outmost cutoff radius                                   
   RWIGS  =    2.500; RWIGS  =    1.323    wigner-seitz radius (au A)           
   ENMAX  =  178.330; ENMIN  =  133.747 eV                                      
   RCLOC  =    2.215    cutoff for local pot                                    
   LCOR   =        T    correct aug charges                                     
   LPAW   =        T    paw PP                                                  
   EAUG   =  328.883                                                            
   DEXC   =    0.000                                                            
   RMAX   =    2.868    core radius for proj-oper                               
   RAUG   =    1.300    factor for augmentation sphere                          
   RDEP   =    2.885    radius for radial grids                                 
   RDEPT  =    2.320    core radius for aug-charge                              
                                                                                
   Atomic configuration                                                         
    9 entries                                                                   
     n  l   j            E        occ.                                          
     1  0  0.50     -4865.3608   2.0000                                         
     2  0  0.50      -533.1367   2.0000                                         
     2  1  1.50      -440.5031   6.0000                                         
     3  0  0.50       -59.3186   2.0000                                         
     3  1  1.50       -35.7012   6.0000                                         
     3  2  2.50        -1.9157   3.0000                                         
     4  0  0.50        -3.7291   1.0000                                         
     4  1  1.50        -4.0817   0.0000                                         
     4  3  2.50        -1.3606   0.0000                                         
   Description                                                                  
     l       E           TYP  RCUT    TYP  RCUT                                 
     2     -1.9156924     23  2.800                                             
     2     -0.4062961     23  2.800                                             
     0     -3.7290832     23  2.800                                             
     0     20.4087390     23  2.800                                             
     1     -5.4423304     23  2.800                                             
  local pseudopotential read in
  partial core-charges read in
  partial kinetic energy density read in
  atomic valenz-charges read in
  non local Contribution for L=           2  read in
    real space projection operators read in
  non local Contribution for L=           2  read in
    real space projection operators read in
  non local Contribution for L=           0  read in
    real space projection operators read in
  non local Contribution for L=           0  read in
    real space projection operators read in
  non local Contribution for L=           1  read in
    real space projection operators read in
    PAW grid and wavefunctions read in
 
   number of l-projection  operators is LMAX  =           5
   number of lm-projection operators is LMMAX =          15
 
 POTCAR:    PAW_PBE V 08Apr2002                   
   VRHFIN =V: p6 d4 s1                                                          
   LEXCH  = PE                                                                  
   EATOM  =   170.8679 eV,   12.5584 Ry                                         
                                                                                
   TITEL  = PAW_PBE V 08Apr2002                                                 
   LULTRA =        F    use ultrasoft PP ?                                      
   IUNSCR =        1    unscreen: 0-lin 1-nonlin 2-no                           
   RPACOR =    2.000    partial core radius                                     
   POMASS =   50.941; ZVAL   =    5.000    mass and valenz                      
   RCORE  =    2.700    outmost cutoff radius                                   
   RWIGS  =    2.500; RWIGS  =    1.323    wigner-seitz radius (au A)           
   ENMAX  =  192.543; ENMIN  =  144.408 eV                                      
   RCLOC  =    1.779    cutoff for local pot                                    
   LCOR   =        T    correct aug charges                                     
   LPAW   =        T    paw PP                                                  
   EAUG   =  358.662                                                            
   DEXC   =    0.000                                                            
   RMAX   =    2.768    core radius for proj-oper                               
   RAUG   =    1.300    factor for augmentation sphere                          
   RDEP   =    2.762    radius for radial grids                                 
   RDEPT  =    2.240    core radius for aug-charge                              
                                                                                
   Atomic configuration                                                         
    9 entries                                                                   
     n  l   j            E        occ.                                          
     1  0  0.50     -5360.7193   2.0000                                         
     2  0  0.50      -598.4546   2.0000                                         
     2  1  1.50      -499.0155   6.0000                                         
     3  0  0.50       -66.5711   2.0000                                         
     3  1  1.50       -40.5282   6.0000                                         
     3  2  2.50        -2.4291   4.0000                                         
     4  0  0.50        -3.8743   1.0000                                         
     4  1  0.50        -2.7212   0.0000                                         
     4  3  2.50        -1.3606   0.0000                                         
   Description                                                                  
     l       E           TYP  RCUT    TYP  RCUT                                 
     2     -2.4290901     23  2.700                                             
     2     -3.7896727     23  2.700                                             
     0     -3.8742752     23  2.700                                             
     0     27.2116520     23  2.700                                             
     1     -2.7211652     23  2.700                                             
     1     27.2116520     23  2.700                                             
  local pseudopotential read in
  partial core-charges read in
  partial kinetic energy density read in
  atomic valenz-charges read in
  non local Contribution for L=           2  read in
    real space projection operators read in
  non local Contribution for L=           2  read in
    real space projection operators read in
  non local Contribution for L=           0  read in
    real space projection operators read in
  non local Contribution for L=           0  read in
    real space projection operators read in
  non local Contribution for L=           1  read in
    real space projection operators read in
  non local Contribution for L=           1  read in
    real space projection operators read in
    PAW grid and wavefunctions read in
 
   number of l-projection  operators is LMAX  =           6
   number of lm-projection operators is LMMAX =          18
 
 Optimization of the real space projectors (new method)

 maximal supplied QI-value         = 15.68
 optimisation between [QCUT,QGAM] = [ 12.55, 25.10] = [ 44.09,176.36] Ry 
 Optimized for a Real-space Cutoff    1.56 Angstroem

   l    n(q)    QCUT    max X(q) W(low)/X(q) W(high)/X(q)  e(spline) 
   0     12    12.548    10.201    0.21E-04    0.36E-05    0.83E-07
   0     12    12.548     8.174    0.31E-04    0.62E-05    0.15E-06
   1     11    12.548     3.488    0.79E-05    0.23E-04    0.21E-06
   1     11    12.548     4.917    0.56E-04    0.13E-03    0.11E-05
   2     11    12.548   153.744    0.25E-03    0.10E-03    0.15E-05
   2     11    12.548   126.342    0.25E-03    0.10E-03    0.15E-05
 Optimization of the real space projectors (new method)

 maximal supplied QI-value         = 13.61
 optimisation between [QCUT,QGAM] = [ 12.52, 25.04] = [ 43.88,175.51] Ry 
 Optimized for a Real-space Cutoff    1.56 Angstroem

   l    n(q)    QCUT    max X(q) W(low)/X(q) W(high)/X(q)  e(spline) 
   2     11    12.518    80.908    0.42E-03    0.30E-03    0.14E-05
   2     11    12.518    79.000    0.42E-03    0.30E-03    0.14E-05
   0     12    12.518    52.066    0.58E-04    0.50E-04    0.55E-06
   0     12    12.518    24.514    0.48E-04    0.41E-04    0.46E-06
   1     11    12.518    16.033    0.62E-04    0.13E-03    0.37E-06
   1     11    12.518    11.179    0.47E-04    0.10E-03    0.31E-06
 Optimization of the real space projectors (new method)

 maximal supplied QI-value         = 12.85
 optimisation between [QCUT,QGAM] = [ 12.46, 25.06] = [ 43.51,175.83] Ry 
 Optimized for a Real-space Cutoff    1.56 Angstroem

   l    n(q)    QCUT    max X(q) W(low)/X(q) W(high)/X(q)  e(spline) 
   2     11    12.465    62.315    0.36E-03    0.20E-03    0.15E-05
   2     11    12.465    52.185    0.36E-03    0.20E-03    0.15E-05
   0     12    12.465   103.837    0.22E-04    0.37E-05    0.56E-06
   0     12    12.465    59.728    0.20E-04    0.34E-05    0.51E-06
   1     11    12.465    13.958    0.44E-03    0.81E-03    0.81E-05
   1     11    12.465     8.441    0.31E-03    0.56E-03    0.56E-05
 Optimization of the real space projectors (new method)

 maximal supplied QI-value         = 13.42
 optimisation between [QCUT,QGAM] = [ 12.48, 25.09] = [ 43.60,176.28] Ry 
 Optimized for a Real-space Cutoff    1.56 Angstroem

   l    n(q)    QCUT    max X(q) W(low)/X(q) W(high)/X(q)  e(spline) 
   2     11    12.478    49.363    0.45E-03    0.34E-03    0.89E-06
   2     11    12.478    47.669    0.44E-03    0.33E-03    0.87E-06
   0     12    12.478    26.374    0.17E-03    0.37E-04    0.21E-05
   0     12    12.478    11.549    0.13E-03    0.31E-04    0.17E-05
   1     11    12.478     9.492    0.91E-05    0.64E-04    0.34E-06
 Optimization of the real space projectors (new method)

 maximal supplied QI-value         = 13.98
 optimisation between [QCUT,QGAM] = [ 12.45, 25.03] = [ 43.38,175.46] Ry 
 Optimized for a Real-space Cutoff    1.56 Angstroem

   l    n(q)    QCUT    max X(q) W(low)/X(q) W(high)/X(q)  e(spline) 
   2     11    12.446    96.114    0.19E-03    0.47E-04    0.85E-06
   2     11    12.446    88.986    0.19E-03    0.46E-04    0.86E-06
   0     12    12.446    20.919    0.37E-04    0.64E-04    0.43E-06
   0     12    12.446     9.593    0.25E-04    0.48E-04    0.33E-06
   1     11    12.446    11.615    0.75E-04    0.30E-04    0.59E-06
   1     11    12.446     7.031    0.53E-04    0.23E-04    0.40E-06

 ----------------------------------------------------------------------------- 
|                                                                             |
|  ADVICE TO THIS USER RUNNING 'VASP/VAMP'   (HEAR YOUR MASTER'S VOICE ...):  |
|                                                                             |
|      You enforced a specific xc-type in the INCAR file,                     |
|      a different type was found on the POTCAR file                          |
|          I HOPE YOU KNOW, WHAT YOU ARE  DOING                               |
|                                                                             |
 ----------------------------------------------------------------------------- 

  PAW_PBE Nb_sv 25May2007               :
 energy of atom  1       EATOM=-1555.1913
 kinetic energy error for atom=    0.0037 (will be added to EATOM!!)
  PAW_PBE Mo 08Apr2002                  :
 energy of atom  2       EATOM= -217.5176
 kinetic energy error for atom=    0.0005 (will be added to EATOM!!)
  PAW_PBE Ta 17Jan2003                  :
 energy of atom  3       EATOM= -130.6506
 kinetic energy error for atom=    0.0004 (will be added to EATOM!!)
  PAW_PBE Ti 08Apr2002                  :
 energy of atom  4       EATOM=  -94.7928
 kinetic energy error for atom=    0.0001 (will be added to EATOM!!)
  PAW_PBE V 08Apr2002                   :
 energy of atom  5       EATOM= -170.8679
 kinetic energy error for atom=    0.0002 (will be added to EATOM!!)
 
 
 POSCAR: Nb - Mo - Ta - Ti - V SQS-30 BCC        
  positions in direct lattice
  No initial velocities read in
 exchange correlation table for  LEXCH =       14
   RHO(1)=    0.500       N(1)  =     2000
   RHO(2)=  100.500       N(2)  =     4000

 VTST: version 3.2, (02/03/18)

 CHAIN: initializing optimizer
 
 OPT: Using VASP Conjugate-Gradient optimizer
 CHAIN: Read ICHAIN            0
 
 POSCAR: Nb - Mo - Ta - Ti - V SQS-30 BCC        
  positions in direct lattice
  No initial velocities read in
 


--------------------------------------------------------------------------------------------------------


 ion  position               nearest neighbor table
   1  0.967  0.933  0.400-  18 2.76   7 2.76  24 2.76  20 2.76  20 2.76  19 2.76   6 2.76   2 2.76
                            16 3.19   8 3.19  15 3.19  11 3.19  12 3.19
   2  0.633  0.267  0.400-  18 2.76  26 2.76   9 2.76  12 2.76  12 2.76  28 2.76  15 2.76   1 2.76
                             8 3.19
   3  0.500  0.000  0.000-  13 2.76  21 2.76  17 2.76  15 2.76   4 2.76   4 2.76  27 2.76  16 2.76
                            14 3.19  10 3.19   7 3.19
   4  0.000  0.000  0.000-  10 2.76  29 2.76  24 2.76  14 2.76   3 2.76   3 2.76   7 2.76   5 2.76
                            15 3.19  13 3.19  17 3.19  16 3.19
   5  0.100  0.200  0.800-  25 2.76  17 2.76   6 2.76  21 2.76  23 2.76  27 2.76  27 2.76   4 2.76
                            10 3.19  14 3.19
   6  0.033  0.067  0.600-  26 2.76   5 2.76  14 2.76  28 2.76  28 2.76  12 2.76   1 2.76  11 2.76
                            17 3.19
   7  0.900  0.800  0.200-  30 2.76  15 2.76   1 2.76  13 2.76   8 2.76  16 2.76  16 2.76   4 2.76
                             9 3.19  20 3.19  24 3.19  29 3.19  18 3.19   3 3.19
   8  0.800  0.600  0.400-  20 2.76  12 2.76   9 2.76  19 2.76   7 2.76  18 2.76  18 2.76  26 2.76
                            30 3.19   1 3.19  11 3.19   2 3.19  16 3.19  23 3.19
   9  0.733  0.467  0.200-  16 2.76   8 2.76   2 2.76  30 2.76  30 2.76  13 2.76  10 2.76  24 2.76
                             7 3.19  18 3.19  12 3.19  29 3.19  21 3.19  15 3.19
  10  0.667  0.333  0.000-   4 2.76  27 2.76  21 2.76  21 2.76  25 2.76  15 2.76   9 2.76  29 2.76
                             3 3.19   5 3.19  22 3.19  24 3.19  13 3.19  30 3.19
  11  0.367  0.733  0.600-  26 2.76  18 2.76  22 2.76  19 2.76  19 2.76  20 2.76  17 2.76   6 2.76
                             8 3.19  23 3.19  25 3.19   1 3.19  28 3.19  14 3.19
  12  0.133  0.267  0.400-   8 2.76  23 2.76  30 2.76   2 2.76   2 2.76   6 2.76  24 2.76  20 2.76
                            26 3.19  18 3.19   9 3.19  28 3.19  15 3.19   1 3.19
  13  0.833  0.667  0.000-   3 2.76   7 2.76  29 2.76  29 2.76   9 2.76  14 2.76  25 2.76  21 2.76
                             4 3.19  16 3.19  30 3.19  17 3.19  10 3.19  22 3.19
  14  0.933  0.867  0.800-  27 2.76   4 2.76   6 2.76  17 2.76  13 2.76  17 2.76  19 2.76  22 2.76
                             3 3.19   5 3.19  28 3.19  29 3.19  11 3.19  25 3.19
  15  0.567  0.133  0.200-   7 2.76   3 2.76  24 2.76  20 2.76  10 2.76  24 2.76   2 2.76  30 2.76
                             4 3.19  16 3.19   1 3.19  21 3.19  12 3.19   9 3.19
  16  0.400  0.800  0.200-   9 2.76  24 2.76  20 2.76  29 2.76  18 2.76   7 2.76   7 2.76   3 2.76
                            30 3.19   1 3.19  13 3.19  15 3.19   8 3.19   4 3.19
  17  0.433  0.867  0.800-   5 2.76   3 2.76  28 2.76  14 2.76  29 2.76  14 2.76  11 2.76  25 2.76
                            27 3.19   4 3.19   6 3.19  13 3.19  19 3.19  22 3.19
  18  0.300  0.600  0.400-   1 2.76   2 2.76  30 2.76  11 2.76  16 2.76   8 2.76   8 2.76  23 2.76
                            20 3.19   9 3.19  19 3.19  12 3.19   7 3.19  26 3.19
  19  0.867  0.733  0.600-  23 2.76   8 2.76  25 2.76  11 2.76  11 2.76   1 2.76  14 2.76  28 2.76
                            18 3.19  17 3.19
  20  0.467  0.933  0.400-   8 2.76  16 2.76  15 2.76   1 2.76   1 2.76  11 2.76  28 2.76  12 2.76
                             7 3.19  18 3.19
  21  0.167  0.333  0.000-   3 2.76   5 2.76  10 2.76  10 2.76  22 2.76  24 2.76  30 2.76  13 2.76
                            15 3.19   9 3.19
  22  0.267  0.533  0.800-  27 2.76  23 2.76  11 2.76  25 2.76  25 2.76  21 2.76  29 2.76  14 2.76
                            10 3.19  13 3.19  17 3.19
  23  0.200  0.400  0.600-  28 2.76  19 2.76  22 2.76  12 2.76   5 2.76  26 2.76  26 2.76  18 2.76
                            11 3.19   8 3.19
  24  0.067  0.133  0.200-  16 2.76   4 2.76  15 2.76   1 2.76  15 2.76  21 2.76  12 2.76   9 2.76
                             7 3.19  10 3.19
  25  0.767  0.533  0.800-   5 2.76  26 2.76  19 2.76  22 2.76  22 2.76  10 2.76  13 2.76  17 2.76
                            11 3.19  14 3.19
  26  0.700  0.400  0.600-   6 2.76  11 2.76  25 2.76   2 2.76  27 2.76  23 2.76  23 2.76   8 2.76
                            12 3.19  18 3.19
  27  0.600  0.200  0.800-  22 2.76  14 2.76  28 2.76  10 2.76  26 2.76   5 2.76   5 2.76   3 2.76
                            17 3.19
  28  0.533  0.067  0.600-  23 2.76  27 2.76  17 2.76   6 2.76   6 2.76   2 2.76  20 2.76  19 2.76
                            14 3.19  12 3.19  11 3.19
  29  0.333  0.667  0.000-   4 2.76  16 2.76  13 2.76  13 2.76  30 2.76  17 2.76  22 2.76  10 2.76
                             7 3.19   9 3.19  14 3.19
  30  0.233  0.467  0.200-   7 2.76  18 2.76  12 2.76   9 2.76   9 2.76  29 2.76  21 2.76  15 2.76
                            16 3.19   8 3.19  13 3.19  10 3.19
 
  LATTYP: Found a triclinic cell.
 ALAT       =     5.5252420761
 B/A-ratio  =     2.8722813233
 C/A-ratio  =     2.0615528128
 COS(alpha) =     0.0140733444
 COS(beta)  =     0.0808452083
 COS(gamma) =     0.8703882798
  
  Lattice vectors:
  
 A1 = (   3.1900000000,   3.1900000000,   3.1900000000)
 A2 = (  11.1650000000,  11.1650000000,   1.5950000000)
 A3 = (  -7.9750000000,   7.9750000000,   1.5950000000)


Analysis of symmetry for initial positions (statically):
=====================================================================
 Subroutine PRICEL returns:
 Original cell was already a primitive cell.
 

 Routine SETGRP: Setting up the symmetry group for a 
 triclinic supercell.


 Subroutine GETGRP returns: Found  1 space group operations
 (whereof  1 operations were pure point group operations)
 out of a pool of  2 trial point group operations.


The static configuration has the point symmetry C_1 .


Analysis of symmetry for dynamics (positions and initial velocities):
=====================================================================
 Subroutine PRICEL returns:
 Original cell was already a primitive cell.
 

 Routine SETGRP: Setting up the symmetry group for a 
 triclinic supercell.


 Subroutine GETGRP returns: Found  1 space group operations
 (whereof  1 operations were pure point group operations)
 out of a pool of  2 trial point group operations.


The dynamic configuration has the point symmetry C_1 .


 Subroutine INISYM returns: Found  1 space group operations
 (whereof  1 operations are pure point group operations),
 and found     1 'primitive' translations

 
 
 KPOINTS: k-points                                

Automatic generation of k-mesh.
Space group operators:
 irot       det(A)        alpha          n_x          n_y          n_z        tau_x        tau_y        tau_z
    1     1.000000     0.000000     1.000000     0.000000     0.000000     0.000000     0.000000     0.000000
 
 Subroutine IBZKPT returns following result:
 ===========================================
 
 Found     63 irreducible k-points:
 
 Following reciprocal coordinates:
            Coordinates               Weight
  0.000000  0.000000  0.000000      1.000000
  0.200000 -0.000000  0.000000      2.000000
  0.400000 -0.000000  0.000000      2.000000
  0.000000  0.200000  0.000000      2.000000
  0.200000  0.200000 -0.000000      2.000000
  0.400000  0.200000 -0.000000      2.000000
 -0.400000  0.200000 -0.000000      2.000000
 -0.200000  0.200000  0.000000      2.000000
  0.000000  0.400000  0.000000      2.000000
  0.200000  0.400000  0.000000      2.000000
  0.400000  0.400000 -0.000000      2.000000
 -0.400000  0.400000  0.000000      2.000000
 -0.200000  0.400000  0.000000      2.000000
  0.000000  0.000000  0.200000      2.000000
  0.200000 -0.000000  0.200000      2.000000
  0.400000  0.000000  0.200000      2.000000
 -0.400000  0.000000  0.200000      2.000000
 -0.200000  0.000000  0.200000      2.000000
  0.000000  0.200000  0.200000      2.000000
  0.200000  0.200000  0.200000      2.000000
  0.400000  0.200000  0.200000      2.000000
 -0.400000  0.200000  0.200000      2.000000
 -0.200000  0.200000  0.200000      2.000000
  0.000000  0.400000  0.200000      2.000000
  0.200000  0.400000  0.200000      2.000000
  0.400000  0.400000  0.200000      2.000000
 -0.400000  0.400000  0.200000      2.000000
 -0.200000  0.400000  0.200000      2.000000
  0.000000 -0.400000  0.200000      2.000000
  0.200000 -0.400000  0.200000      2.000000
  0.400000 -0.400000  0.200000      2.000000
 -0.400000 -0.400000  0.200000      2.000000
 -0.200000 -0.400000  0.200000      2.000000
  0.000000 -0.200000  0.200000      2.000000
  0.200000 -0.200000  0.200000      2.000000
  0.400000 -0.200000  0.200000      2.000000
 -0.400000 -0.200000  0.200000      2.000000
 -0.200000 -0.200000  0.200000      2.000000
  0.000000  0.000000  0.400000      2.000000
  0.200000 -0.000000  0.400000      2.000000
  0.400000 -0.000000  0.400000      2.000000
 -0.400000  0.000000  0.400000      2.000000
 -0.200000  0.000000  0.400000      2.000000
 -0.000000  0.200000  0.400000      2.000000
  0.200000  0.200000  0.400000      2.000000
  0.400000  0.200000  0.400000      2.000000
 -0.400000  0.200000  0.400000      2.000000
 -0.200000  0.200000  0.400000      2.000000
  0.000000  0.400000  0.400000      2.000000
  0.200000  0.400000  0.400000      2.000000
  0.400000  0.400000  0.400000      2.000000
 -0.400000  0.400000  0.400000      2.000000
 -0.200000  0.400000  0.400000      2.000000
  0.000000 -0.400000  0.400000      2.000000
  0.200000 -0.400000  0.400000      2.000000
  0.400000 -0.400000  0.400000      2.000000
 -0.400000 -0.400000  0.400000      2.000000
 -0.200000 -0.400000  0.400000      2.000000
  0.000000 -0.200000  0.400000      2.000000
  0.200000 -0.200000  0.400000      2.000000
  0.400000 -0.200000  0.400000      2.000000
 -0.400000 -0.200000  0.400000      2.000000
 -0.200000 -0.200000  0.400000      2.000000
 
 Following cartesian coordinates:
            Coordinates               Weight
  0.000000  0.000000  0.000000      1.000000
 -0.086667 -0.080000 -0.033333      2.000000
 -0.173333 -0.160000 -0.066667      2.000000
  0.026667  0.040000 -0.066667      2.000000
 -0.060000 -0.040000 -0.100000      2.000000
 -0.146667 -0.120000 -0.133333      2.000000
  0.200000  0.200000 -0.000000      2.000000
  0.113333  0.120000 -0.033333      2.000000
  0.053333  0.080000 -0.133333      2.000000
 -0.033333 -0.000000 -0.166667      2.000000
 -0.120000 -0.080000 -0.200000      2.000000
  0.226667  0.240000 -0.066667      2.000000
  0.140000  0.160000 -0.100000      2.000000
  0.040000 -0.040000  0.000000      2.000000
 -0.046667 -0.120000 -0.033333      2.000000
 -0.133333 -0.200000 -0.066667      2.000000
  0.213333  0.120000  0.066667      2.000000
  0.126667  0.040000  0.033333      2.000000
  0.066667 -0.000000 -0.066667      2.000000
 -0.020000 -0.080000 -0.100000      2.000000
 -0.106667 -0.160000 -0.133333      2.000000
  0.240000  0.160000 -0.000000      2.000000
  0.153333  0.080000 -0.033333      2.000000
  0.093333  0.040000 -0.133333      2.000000
  0.006667 -0.040000 -0.166667      2.000000
 -0.080000 -0.120000 -0.200000      2.000000
  0.266667  0.200000 -0.066667      2.000000
  0.180000  0.120000 -0.100000      2.000000
 -0.013333 -0.120000  0.133333      2.000000
 -0.100000 -0.200000  0.100000      2.000000
 -0.186667 -0.280000  0.066667      2.000000
  0.160000  0.040000  0.200000      2.000000
  0.073333 -0.040000  0.166667      2.000000
  0.013333 -0.080000  0.066667      2.000000
 -0.073333 -0.160000  0.033333      2.000000
 -0.160000 -0.240000  0.000000      2.000000
  0.186667  0.080000  0.133333      2.000000
  0.100000 -0.000000  0.100000      2.000000
  0.080000 -0.080000  0.000000      2.000000
 -0.006667 -0.160000 -0.033333      2.000000
 -0.093333 -0.240000 -0.066667      2.000000
  0.253333  0.080000  0.066667      2.000000
  0.166667  0.000000  0.033333      2.000000
  0.106667 -0.040000 -0.066667      2.000000
  0.020000 -0.120000 -0.100000      2.000000
 -0.066667 -0.200000 -0.133333      2.000000
  0.280000  0.120000 -0.000000      2.000000
  0.193333  0.040000 -0.033333      2.000000
  0.133333 -0.000000 -0.133333      2.000000
  0.046667 -0.080000 -0.166667      2.000000
 -0.040000 -0.160000 -0.200000      2.000000
  0.306667  0.160000 -0.066667      2.000000
  0.220000  0.080000 -0.100000      2.000000
  0.026667 -0.160000  0.133333      2.000000
 -0.060000 -0.240000  0.100000      2.000000
 -0.146667 -0.320000  0.066667      2.000000
  0.200000  0.000000  0.200000      2.000000
  0.113333 -0.080000  0.166667      2.000000
  0.053333 -0.120000  0.066667      2.000000
 -0.033333 -0.200000  0.033333      2.000000
 -0.120000 -0.280000  0.000000      2.000000
  0.226667  0.040000  0.133333      2.000000
  0.140000 -0.040000  0.100000      2.000000
 


--------------------------------------------------------------------------------------------------------




 Dimension of arrays:
   k-points           NKPTS =     63   k-points in BZ     NKDIM =     63   number of bands    NBANDS=    120
   number of dos      NEDOS =    301   number of ions     NIONS =     30
   non local maximal  LDIM  =      6   non local SUM 2l+1 LMDIM =     18
   total plane-waves  NPLWV = 126000
   max r-space proj   IRMAX =   4167   max aug-charges    IRDMAX=  18069
   dimension x,y,z NGX =    36 NGY =   50 NGZ =   70
   dimension x,y,z NGXF=    72 NGYF=  100 NGZF=  140
   support grid    NGXF=    72 NGYF=  100 NGZF=  140
   ions per type =               6   6   6   6   6
   NGX,Y,Z   is equivalent  to a cutoff of  10.83, 10.03, 10.22 a.u.
   NGXF,Y,Z  is equivalent  to a cutoff of  21.66, 20.06, 20.43 a.u.

 SYSTEM =  Nb - Mo - Ta - Ti - V SQS               
 POSCAR =  Nb - Mo - Ta - Ti - V SQS-30 BCC        

 Startparameter for this run:
   NWRITE =      2    write-flag & timer
   PREC   = normal    normal or accurate (medium, high low for compatibility)
   ISTART =      1    job   : 0-new  1-cont  2-samecut
   ICHARG =      1    charge: 1-file 2-atom 10-const
   ISPIN  =      1    spin polarized calculation?
   LNONCOLLINEAR =      F non collinear calculations
   LSORBIT =      F    spin-orbit coupling
   INIWAV =      1    electr: 0-lowe 1-rand  2-diag
   LASPH  =      F    aspherical Exc in radial PAW
   METAGGA=      F    non-selfconsistent MetaGGA calc.

 Electronic Relaxation 1
   ENCUT  =  600.0 eV  44.10 Ry    6.64 a.u.  11.04 16.55 22.75*2*pi/ulx,y,z
   ENINI  =  600.0     initial cutoff
   ENAUG  =  455.7 eV  augmentation charge cutoff
   NELM   =    100;   NELMIN=  2; NELMDL=  0     # of ELM steps 
   EDIFF  = 0.1E-03   stopping-criterion for ELM
   LREAL  =      T    real-space projection
   NLSPLINE    = F    spline interpolate recip. space projectors
   LCOMPAT=      F    compatible to vasp.4.4
   GGA_COMPAT  = T    GGA compatible to vasp.4.4-vasp.4.6
   LMAXPAW     = -100 max onsite density
   LMAXMIX     =    2 max onsite mixed and CHGCAR
   VOSKOWN=      0    Vosko Wilk Nusair interpolation
   ROPT   =   -0.00050  -0.00050  -0.00050  -0.00050
   ROPT   =   -0.00050
 Ionic relaxation
   EDIFFG = 0.1E-02   stopping-criterion for IOM
   NSW    =      0    number of steps for IOM
   NBLOCK =      1;   KBLOCK =      1    inner block; outer block 
   IBRION =     -1    ionic relax: 0-MD 1-quasi-New 2-CG
   NFREE  =      1    steps in history (QN), initial steepest desc. (CG)
   ISIF   =      2    stress and relaxation
   IWAVPR =     10    prediction:  0-non 1-charg 2-wave 3-comb
   ISYM   =      2    0-nonsym 1-usesym 2-fastsym
   LCORR  =      T    Harris-Foulkes like correction to forces

   POTIM  = 0.5000    time-step for ionic-motion
   TEIN   =    0.0    initial temperature
   TEBEG  =    0.0;   TEEND  =   0.0 temperature during run
   SMASS  =  -3.00    Nose mass-parameter (am)
   estimated Nose-frequenzy (Omega)   =  0.10E-29 period in steps =****** mass=  -0.698E-27a.u.
   SCALEE = 1.0000    scale energy and forces
   NPACO  =    256;   APACO  = 16.0  distance and # of slots for P.C.
   PSTRESS=    0.0 pullay stress

  Mass of Ions in am
   POMASS =  92.91 95.94180.95 47.88 50.94
  Ionic Valenz
   ZVAL   =  13.00  6.00  5.00  4.00  5.00
  Atomic Wigner-Seitz radii
   RWIGS  =  -1.00 -1.00 -1.00 -1.00 -1.00
  virtual crystal weights 
   VCA    =   1.00  1.00  1.00  1.00  1.00
   NELECT =     198.0000    total number of electrons
   NUPDOWN=      -1.0000    fix difference up-down

 DOS related values:
   EMIN   =  10.00;   EMAX   =-10.00  energy-range for DOS
   EFERMI =   0.00
   ISMEAR =     1;   SIGMA  =   0.20  broadening in eV -4-tet -1-fermi 0-gaus

 Electronic relaxation 2 (details)
   IALGO  =     38    algorithm
   LDIAG  =      T    sub-space diagonalisation (order eigenvalues)
   LSUBROT=      F    optimize rotation matrix (better conditioning)
   TURBO    =      0    0=normal 1=particle mesh
   IRESTART =      0    0=no restart 2=restart with 2 vectors
   NREBOOT  =      0    no. of reboots
   NMIN     =      0    reboot dimension
   EREF     =   0.00    reference energy to select bands
   IMIX   =      4    mixing-type and parameters
     AMIX     =   0.40;   BMIX     =  1.00
     AMIX_MAG =   1.60;   BMIX_MAG =  1.00
     AMIN     =   0.10
     WC   =   100.;   INIMIX=   1;  MIXPRE=   1;  MAXMIX= -45

 Intra band minimization:
   WEIMIN = 0.0000     energy-eigenvalue tresh-hold
   EBREAK =  0.21E-06  absolut break condition
   DEPER  =   0.30     relativ break condition  

   TIME   =   0.40     timestep for ELM

  volume/ion in A,a.u.               =      16.23       109.53
  Fermi-wavevector in a.u.,A,eV,Ry     =   1.212855  2.291963 20.014396  1.471017
  Thomas-Fermi vector in A             =   2.348325
 
 Write flags
   LWAVE        =      T    write WAVECAR
   LDOWNSAMPLE  =      F    k-point downsampling of WAVECAR
   LCHARG       =      T    write CHGCAR
   LVTOT        =      F    write LOCPOT, total local potential
   LVHAR        =      F    write LOCPOT, Hartree potential only
   LELF         =      F    write electronic localiz. function (ELF)
   LORBIT       =      0    0 simple, 1 ext, 2 COOP (PROOUT), +10 PAW based schemes


 Dipole corrections
   LMONO  =      F    monopole corrections only (constant potential shift)
   LDIPOL =      F    correct potential (dipole corrections)
   IDIPOL =      0    1-x, 2-y, 3-z, 4-all directions 
   EPSILON=  1.0000000 bulk dielectric constant

 Exchange correlation treatment:
   GGA     =    PS    GGA type
   LEXCH   =    14    internal setting for exchange type
   VOSKOWN=      0    Vosko Wilk Nusair interpolation
   LHFCALC =     F    Hartree Fock is set to
   LHFONE  =     F    Hartree Fock one center treatment
   AEXX    =    0.0000 exact exchange contribution

 Linear response parameters
   LEPSILON=     F    determine dielectric tensor
   LRPA    =     F    only Hartree local field effects (RPA)
   LNABLA  =     F    use nabla operator in PAW spheres
   LVEL    =     F    velocity operator in full k-point grid
   LINTERFAST=   F  fast interpolation
   KINTER  =     0    interpolate to denser k-point grid
   CSHIFT  =0.1000    complex shift for real part using Kramers Kronig
   OMEGAMAX=  -1.0    maximum frequency
   DEG_THRESHOLD= 0.2000000E-02 threshold for treating states as degnerate
   RTIME   =   -0.100 relaxation time in fs
  (WPLASMAI=    0.000 imaginary part of plasma frequency in eV, 0.658/RTIME)
   DFIELD  = 0.0000000 0.0000000 0.0000000 field for delta impulse in time
 
 Orbital magnetization related:
   ORBITALMAG=     F  switch on orbital magnetization
   LCHIMAG   =     F  perturbation theory with respect to B field
   DQ        =  0.001000  dq finite difference perturbation B field
   LLRAUG    =     F  two centre corrections for induced B field



--------------------------------------------------------------------------------------------------------


 Static calculation
 charge density and potential will be updated during run
 non-spin polarized calculation
 Variant of blocked Davidson
 Davidson routine will perform the subspace rotation
 perform sub-space diagonalisation
    after iterative eigenvector-optimisation
 modified Broyden-mixing scheme, WC =      100.0
 initial mixing is a Kerker type mixing with AMIX =  0.4000 and BMIX =      1.0000
 Hartree-type preconditioning will be used
 using additional bands           21
 real space projection scheme for non local part
 use partial core corrections
 calculate Harris-corrections to forces 
   (improved forces if not selfconsistent)
 use gradient corrections 
 use of overlap-Matrix (Vanderbilt PP)
 Methfessel and Paxton  Order N= 1 SIGMA  =   0.20


--------------------------------------------------------------------------------------------------------


  energy-cutoff  :      600.00
  volume of cell :      486.93
      direct lattice vectors                 reciprocal lattice vectors
    -3.190000000 -3.190000000 -3.190000000    -0.135841170 -0.125391850 -0.052246604
     1.595000000  1.595000000 -7.975000000     0.041797283  0.062695925 -0.104493208
     7.975000000 -7.975000000 -1.595000000     0.062695925 -0.062695925  0.000000000

  length of vectors
     5.525242076  8.287863114 11.390578344     0.192108425  0.128827879  0.088665427


 
 old parameters found on file WAVECAR:
  energy-cutoff  :      600.00
  volume of cell :      486.93
      direct lattice vectors                 reciprocal lattice vectors
    -3.190000000 -3.190000000 -3.190000000    -0.135841170 -0.125391850 -0.052246604
     1.595000000  1.595000000 -7.975000000     0.041797283  0.062695925 -0.104493208
     7.975000000 -7.975000000 -1.595000000     0.062695925 -0.062695925  0.000000000

  length of vectors

 
 k-points in units of 2pi/SCALE and weight: k-points                                
   0.00000000  0.00000000  0.00000000       0.008
  -0.08666667 -0.08000000 -0.03333333       0.016
  -0.17333333 -0.16000000 -0.06666667       0.016
   0.02666667  0.04000000 -0.06666667       0.016
  -0.06000000 -0.04000000 -0.10000000       0.016
  -0.14666667 -0.12000000 -0.13333333       0.016
   0.20000000  0.20000000 -0.00000000       0.016
   0.11333333  0.12000000 -0.03333333       0.016
   0.05333333  0.08000000 -0.13333333       0.016
  -0.03333333 -0.00000000 -0.16666667       0.016
  -0.12000000 -0.08000000 -0.20000000       0.016
   0.22666667  0.24000000 -0.06666667       0.016
   0.14000000  0.16000000 -0.10000000       0.016
   0.04000000 -0.04000000  0.00000000       0.016
  -0.04666667 -0.12000000 -0.03333333       0.016
  -0.13333333 -0.20000000 -0.06666667       0.016
   0.21333333  0.12000000  0.06666667       0.016
   0.12666667  0.04000000  0.03333333       0.016
   0.06666667 -0.00000000 -0.06666667       0.016
  -0.02000000 -0.08000000 -0.10000000       0.016
  -0.10666667 -0.16000000 -0.13333333       0.016
   0.24000000  0.16000000 -0.00000000       0.016
   0.15333333  0.08000000 -0.03333333       0.016
   0.09333333  0.04000000 -0.13333333       0.016
   0.00666667 -0.04000000 -0.16666667       0.016
  -0.08000000 -0.12000000 -0.20000000       0.016
   0.26666667  0.20000000 -0.06666667       0.016
   0.18000000  0.12000000 -0.10000000       0.016
  -0.01333333 -0.12000000  0.13333333       0.016
  -0.10000000 -0.20000000  0.10000000       0.016
  -0.18666667 -0.28000000  0.06666667       0.016
   0.16000000  0.04000000  0.20000000       0.016
   0.07333333 -0.04000000  0.16666667       0.016
   0.01333333 -0.08000000  0.06666667       0.016
  -0.07333333 -0.16000000  0.03333333       0.016
  -0.16000000 -0.24000000  0.00000000       0.016
   0.18666667  0.08000000  0.13333333       0.016
   0.10000000 -0.00000000  0.10000000       0.016
   0.08000000 -0.08000000  0.00000000       0.016
  -0.00666667 -0.16000000 -0.03333333       0.016
  -0.09333333 -0.24000000 -0.06666667       0.016
   0.25333333  0.08000000  0.06666667       0.016
   0.16666667  0.00000000  0.03333333       0.016
   0.10666667 -0.04000000 -0.06666667       0.016
   0.02000000 -0.12000000 -0.10000000       0.016
  -0.06666667 -0.20000000 -0.13333333       0.016
   0.28000000  0.12000000 -0.00000000       0.016
   0.19333333  0.04000000 -0.03333333       0.016
   0.13333333 -0.00000000 -0.13333333       0.016
   0.04666667 -0.08000000 -0.16666667       0.016
  -0.04000000 -0.16000000 -0.20000000       0.016
   0.30666667  0.16000000 -0.06666667       0.016
   0.22000000  0.08000000 -0.10000000       0.016
   0.02666667 -0.16000000  0.13333333       0.016
  -0.06000000 -0.24000000  0.10000000       0.016
  -0.14666667 -0.32000000  0.06666667       0.016
   0.20000000  0.00000000  0.20000000       0.016
   0.11333333 -0.08000000  0.16666667       0.016
   0.05333333 -0.12000000  0.06666667       0.016
  -0.03333333 -0.20000000  0.03333333       0.016
  -0.12000000 -0.28000000  0.00000000       0.016
   0.22666667  0.04000000  0.13333333       0.016
   0.14000000 -0.04000000  0.10000000       0.016
 
 k-points in reciprocal lattice and weights: k-points                                
   0.00000000  0.00000000  0.00000000       0.008
   0.20000000 -0.00000000  0.00000000       0.016
   0.40000000 -0.00000000  0.00000000       0.016
   0.00000000  0.20000000  0.00000000       0.016
   0.20000000  0.20000000 -0.00000000       0.016
   0.40000000  0.20000000 -0.00000000       0.016
  -0.40000000  0.20000000 -0.00000000       0.016
  -0.20000000  0.20000000  0.00000000       0.016
   0.00000000  0.40000000  0.00000000       0.016
   0.20000000  0.40000000  0.00000000       0.016
   0.40000000  0.40000000 -0.00000000       0.016
  -0.40000000  0.40000000  0.00000000       0.016
  -0.20000000  0.40000000  0.00000000       0.016
   0.00000000  0.00000000  0.20000000       0.016
   0.20000000 -0.00000000  0.20000000       0.016
   0.40000000  0.00000000  0.20000000       0.016
  -0.40000000  0.00000000  0.20000000       0.016
  -0.20000000  0.00000000  0.20000000       0.016
   0.00000000  0.20000000  0.20000000       0.016
   0.20000000  0.20000000  0.20000000       0.016
   0.40000000  0.20000000  0.20000000       0.016
  -0.40000000  0.20000000  0.20000000       0.016
  -0.20000000  0.20000000  0.20000000       0.016
   0.00000000  0.40000000  0.20000000       0.016
   0.20000000  0.40000000  0.20000000       0.016
   0.40000000  0.40000000  0.20000000       0.016
  -0.40000000  0.40000000  0.20000000       0.016
  -0.20000000  0.40000000  0.20000000       0.016
   0.00000000 -0.40000000  0.20000000       0.016
   0.20000000 -0.40000000  0.20000000       0.016
   0.40000000 -0.40000000  0.20000000       0.016
  -0.40000000 -0.40000000  0.20000000       0.016
  -0.20000000 -0.40000000  0.20000000       0.016
   0.00000000 -0.20000000  0.20000000       0.016
   0.20000000 -0.20000000  0.20000000       0.016
   0.40000000 -0.20000000  0.20000000       0.016
  -0.40000000 -0.20000000  0.20000000       0.016
  -0.20000000 -0.20000000  0.20000000       0.016
   0.00000000  0.00000000  0.40000000       0.016
   0.20000000 -0.00000000  0.40000000       0.016
   0.40000000 -0.00000000  0.40000000       0.016
  -0.40000000  0.00000000  0.40000000       0.016
  -0.20000000  0.00000000  0.40000000       0.016
  -0.00000000  0.20000000  0.40000000       0.016
   0.20000000  0.20000000  0.40000000       0.016
   0.40000000  0.20000000  0.40000000       0.016
  -0.40000000  0.20000000  0.40000000       0.016
  -0.20000000  0.20000000  0.40000000       0.016
   0.00000000  0.40000000  0.40000000       0.016
   0.20000000  0.40000000  0.40000000       0.016
   0.40000000  0.40000000  0.40000000       0.016
  -0.40000000  0.40000000  0.40000000       0.016
  -0.20000000  0.40000000  0.40000000       0.016
   0.00000000 -0.40000000  0.40000000       0.016
   0.20000000 -0.40000000  0.40000000       0.016
   0.40000000 -0.40000000  0.40000000       0.016
  -0.40000000 -0.40000000  0.40000000       0.016
  -0.20000000 -0.40000000  0.40000000       0.016
   0.00000000 -0.20000000  0.40000000       0.016
   0.20000000 -0.20000000  0.40000000       0.016
   0.40000000 -0.20000000  0.40000000       0.016
  -0.40000000 -0.20000000  0.40000000       0.016
  -0.20000000 -0.20000000  0.40000000       0.016
 
 position of ions in fractional coordinates (direct lattice) 
   0.96666667  0.93333333  0.40000000
   0.63333333  0.26666667  0.40000000
   0.50000000  0.00000000  0.00000000
   0.00000000  0.00000000  0.00000000
   0.10000000  0.20000000  0.80000000
   0.03333333  0.06666667  0.60000000
   0.90000000  0.80000000  0.20000000
   0.80000000  0.60000000  0.40000000
   0.73333333  0.46666667  0.20000000
   0.66666667  0.33333333  0.00000000
   0.36666667  0.73333333  0.60000000
   0.13333333  0.26666667  0.40000000
   0.83333333  0.66666667  0.00000000
   0.93333333  0.86666667  0.80000000
   0.56666667  0.13333333  0.20000000
   0.40000000  0.80000000  0.20000000
   0.43333333  0.86666667  0.80000000
   0.30000000  0.60000000  0.40000000
   0.86666667  0.73333333  0.60000000
   0.46666667  0.93333333  0.40000000
   0.16666667  0.33333333  0.00000000
   0.26666667  0.53333333  0.80000000
   0.20000000  0.40000000  0.60000000
   0.06666667  0.13333333  0.20000000
   0.76666667  0.53333333  0.80000000
   0.70000000  0.40000000  0.60000000
   0.60000000  0.20000000  0.80000000
   0.53333333  0.06666667  0.60000000
   0.33333333  0.66666667  0.00000000
   0.23333333  0.46666667  0.20000000
 
 position of ions in cartesian coordinates  (Angst):
   1.59499998 -4.78500002-11.16499998
   1.59500002 -4.78499998 -4.78500002
  -1.59500000 -1.59500000 -1.59500000
   0.00000000  0.00000000  0.00000000
   6.38000000 -6.38000000 -3.19000000
   4.78500002 -4.78499998 -1.59500002
   0.00000000 -3.19000000 -9.57000000
   1.59500000 -4.78500000 -7.97500000
   0.00000002 -3.18999998 -6.38000002
  -1.59500002 -1.59500002 -4.78499998
   4.78499998 -4.78500002 -7.97499998
   3.19000002 -3.18999998 -3.19000002
  -1.59499998 -1.59499998 -7.97500002
   4.78500002 -7.97499998-11.16500002
  -0.00000002 -3.19000002 -3.18999998
   1.59500000 -1.59500000 -7.97500000
   6.38000002 -6.37999998 -9.57000002
   3.19000000 -3.19000000 -6.38000000
   3.18999998 -6.38000002 -9.56999998
   3.18999998 -3.19000002 -9.56999998
  -0.00000002 -0.00000002 -3.18999998
   6.37999998 -6.38000002 -6.37999998
   4.78500000 -4.78500000 -4.78500000
   1.59499998 -1.59500002 -1.59499998
   4.78499998 -7.97500002 -7.97499998
   3.19000000 -6.38000000 -6.38000000
   4.78500000 -7.97500000 -4.78500000
   3.19000002 -6.37999998 -3.19000002
   0.00000002  0.00000002 -6.38000002
   1.59500002 -1.59499998 -4.78500002
 


--------------------------------------------------------------------------------------------------------


 k-point  1 :   0.0000 0.0000 0.0000  plane waves:   16249
 k-point  2 :   0.2000-0.0000 0.0000  plane waves:   16256
 k-point  3 :   0.4000-0.0000 0.0000  plane waves:   16277
 k-point  4 :   0.0000 0.2000 0.0000  plane waves:   16217
 k-point  5 :   0.2000 0.2000-0.0000  plane waves:   16256
 k-point  6 :   0.4000 0.2000-0.0000  plane waves:   16270
 k-point  7 :  -0.4000 0.2000-0.0000  plane waves:   16280
 k-point  8 :  -0.2000 0.2000 0.0000  plane waves:   16234
 k-point  9 :   0.0000 0.4000 0.0000  plane waves:   16214
 k-point 10 :   0.2000 0.4000 0.0000  plane waves:   16242
 k-point 11 :   0.4000 0.4000-0.0000  plane waves:   16264
 k-point 12 :  -0.4000 0.4000 0.0000  plane waves:   16256
 k-point 13 :  -0.2000 0.4000 0.0000  plane waves:   16239
 k-point 14 :   0.0000 0.0000 0.2000  plane waves:   16244
 k-point 15 :   0.2000-0.0000 0.2000  plane waves:   16258
 k-point 16 :   0.4000 0.0000 0.2000  plane waves:   16246
 k-point 17 :  -0.4000 0.0000 0.2000  plane waves:   16269
 k-point 18 :  -0.2000 0.0000 0.2000  plane waves:   16233
 k-point 19 :   0.0000 0.2000 0.2000  plane waves:   16226
 k-point 20 :   0.2000 0.2000 0.2000  plane waves:   16278
 k-point 21 :   0.4000 0.2000 0.2000  plane waves:   16283
 k-point 22 :  -0.4000 0.2000 0.2000  plane waves:   16263
 k-point 23 :  -0.2000 0.2000 0.2000  plane waves:   16239
 k-point 24 :   0.0000 0.4000 0.2000  plane waves:   16204
 k-point 25 :   0.2000 0.4000 0.2000  plane waves:   16244
 k-point 26 :   0.4000 0.4000 0.2000  plane waves:   16269
 k-point 27 :  -0.4000 0.4000 0.2000  plane waves:   16282
 k-point 28 :  -0.2000 0.4000 0.2000  plane waves:   16228
 k-point 29 :   0.0000-0.4000 0.2000  plane waves:   16219
 k-point 30 :   0.2000-0.4000 0.2000  plane waves:   16269
 k-point 31 :   0.4000-0.4000 0.2000  plane waves:   16259
 k-point 32 :  -0.4000-0.4000 0.2000  plane waves:   16255
 k-point 33 :  -0.2000-0.4000 0.2000  plane waves:   16242
 k-point 34 :   0.0000-0.2000 0.2000  plane waves:   16226
 k-point 35 :   0.2000-0.2000 0.2000  plane waves:   16240
 k-point 36 :   0.4000-0.2000 0.2000  plane waves:   16250
 k-point 37 :  -0.4000-0.2000 0.2000  plane waves:   16266
 k-point 38 :  -0.2000-0.2000 0.2000  plane waves:   16231
 k-point 39 :   0.0000 0.0000 0.4000  plane waves:   16243
 k-point 40 :   0.2000-0.0000 0.4000  plane waves:   16275
 k-point 41 :   0.4000-0.0000 0.4000  plane waves:   16273
 k-point 42 :  -0.4000 0.0000 0.4000  plane waves:   16253
 k-point 43 :  -0.2000 0.0000 0.4000  plane waves:   16249
 k-point 44 :  -0.0000 0.2000 0.4000  plane waves:   16243
 k-point 45 :   0.2000 0.2000 0.4000  plane waves:   16275
 k-point 46 :   0.4000 0.2000 0.4000  plane waves:   16272
 k-point 47 :  -0.4000 0.2000 0.4000  plane waves:   16271
 k-point 48 :  -0.2000 0.2000 0.4000  plane waves:   16246
 k-point 49 :   0.0000 0.4000 0.4000  plane waves:   16195
 k-point 50 :   0.2000 0.4000 0.4000  plane waves:   16250
 k-point 51 :   0.4000 0.4000 0.4000  plane waves:   16284
 k-point 52 :  -0.4000 0.4000 0.4000  plane waves:   16251
 k-point 53 :  -0.2000 0.4000 0.4000  plane waves:   16224
 k-point 54 :   0.0000-0.4000 0.4000  plane waves:   16209
 k-point 55 :   0.2000-0.4000 0.4000  plane waves:   16236
 k-point 56 :   0.4000-0.4000 0.4000  plane waves:   16273
 k-point 57 :  -0.4000-0.4000 0.4000  plane waves:   16245
 k-point 58 :  -0.2000-0.4000 0.4000  plane waves:   16233
 k-point 59 :   0.0000-0.2000 0.4000  plane waves:   16227
 k-point 60 :   0.2000-0.2000 0.4000  plane waves:   16254
 k-point 61 :   0.4000-0.2000 0.4000  plane waves:   16269
 k-point 62 :  -0.4000-0.2000 0.4000  plane waves:   16261
 k-point 63 :  -0.2000-0.2000 0.4000  plane waves:   16256

 maximum and minimum number of plane-waves per node :      4103     4007

 maximum number of plane-waves:     16284
 maximum index in each direction: 
   IXMAX=   11   IYMAX=   16   IZMAX=   22
   IXMIN=  -11   IYMIN=  -16   IZMIN=  -23


 real space projection operators:
  total allocation   :      16305.40 KBytes
  max/ min on nodes  :       4076.79       4075.78


 parallel 3D FFT for wavefunctions:
    minimum data exchange during FFTs selected (reduces bandwidth)
 parallel 3D FFT for charge:
    minimum data exchange during FFTs selected (reduces bandwidth)


 total amount of memory used by VASP MPI-rank0   108477. kBytes
=======================================================================

   base      :      30000. kBytes
   nonlr-proj:       7129. kBytes
   fftplans  :       2330. kBytes
   grid      :       4665. kBytes
   one-center:        124. kBytes
   wavefun   :      64229. kBytes
 
     INWAV:  cpu time    6.0531: real time   14.1748
 Broyden mixing: mesh for mixing (old mesh)
   NGX = 23   NGY = 33   NGZ = 45
  (NGX  = 72   NGY  =100   NGZ  =140)
  gives a total of  34155 points

 initial charge density was supplied:
 number of electron     198.0000013 magnetization 
 keeping initial charge density in first step


--------------------------------------------------------------------------------------------------------


 Maximum index for non-local projection operator         1012
 Maximum index for augmentation-charges         1404 (set IRDMAX)


--------------------------------------------------------------------------------------------------------


 First call to EWALD:  gamma=   0.225
 Maximum number of real-space cells 4x 3x 2
 Maximum number of reciprocal cells 2x 3x 4

    FEWALD:  cpu time    0.0028: real time    0.0029


--------------------------------------- Iteration      1(   1)  ---------------------------------------


    POTLOK:  cpu time    0.0258: real time    0.0378
    SETDIJ:  cpu time    0.0058: real time    0.0058
     EDDAV:  cpu time   29.5135: real time   29.5522
       DOS:  cpu time    0.0042: real time    0.0042
    CHARGE:  cpu time    0.5933: real time    0.5938
    MIXING:  cpu time    0.0016: real time    0.0017
    --------------------------------------------
      LOOP:  cpu time   30.1442: real time   30.1955

 eigenvalue-minimisations  : 26784
 total energy-change (2. order) :-0.3634300E+03  (-0.7408684E+00)
 number of electron     198.0000013 magnetization 
 augmentation part       34.3215410 magnetization 

 Broyden mixing:
  rms(total) = 0.51339E+01    rms(broyden)= 0.51339E+01
  rms(prec ) = 0.70398E+01
  weight for this iteration     100.00

 Free energy of the ion-electron system (eV)
  ---------------------------------------------------
  alpha Z        PSCENC =      1195.67725051
  Ewald energy   TEWEN  =    -11425.97941758
  -Hartree energ DENC   =     -3017.11857055
  -exchange      EXHF   =         0.00000000
  -V(xc)+E(xc)   XCENC  =      -888.44052224
  PAW double counting   =     19765.16798484   -18259.25004409
  entropy T*S    EENTRO =        -0.01079124
  eigenvalues    EBANDS =      -739.38381469
  atomic energy  EATOM  =     13005.90793652
  Solvation  Ediel_sol  =         0.00000000
  ---------------------------------------------------
  free energy    TOTEN  =      -363.42998851 eV

  energy without entropy =     -363.41919727  energy(sigma->0) =     -363.42639143


--------------------------------------------------------------------------------------------------------




--------------------------------------- Iteration      1(   2)  ---------------------------------------


    POTLOK:  cpu time    0.0235: real time    0.0317
    SETDIJ:  cpu time    0.0058: real time    0.0058
     EDDAV:  cpu time   26.7613: real time   26.7874
       DOS:  cpu time    0.0040: real time    0.0040
    CHARGE:  cpu time    0.5934: real time    0.5938
    MIXING:  cpu time    0.0012: real time    0.0012
    --------------------------------------------
      LOOP:  cpu time   27.3892: real time   27.4239

 eigenvalue-minimisations  : 24000
 total energy-change (2. order) :-0.4318552E+02  (-0.1673451E+03)
 number of electron     198.0000001 magnetization 
 augmentation part       42.9281051 magnetization 

 Broyden mixing:
  rms(total) = 0.73881E+01    rms(broyden)= 0.73881E+01
  rms(prec ) = 0.11134E+02
  weight for this iteration     100.00

 eigenvalues of (default mixing * dielectric matrix)
  average eigenvalue GAMMA=   0.3716
  0.3716

 Free energy of the ion-electron system (eV)
  ---------------------------------------------------
  alpha Z        PSCENC =      1195.67725051
  Ewald energy   TEWEN  =    -11425.97941758
  -Hartree energ DENC   =     -3018.47175432
  -exchange      EXHF   =         0.00000000
  -V(xc)+E(xc)   XCENC  =      -888.79618735
  PAW double counting   =     19395.88725671   -17892.33581681
  entropy T*S    EENTRO =        -0.00777530
  eigenvalues    EBANDS =      -778.49700361
  atomic energy  EATOM  =     13005.90793652
  Solvation  Ediel_sol  =         0.00000000
  ---------------------------------------------------
  free energy    TOTEN  =      -406.61551123 eV

  energy without entropy =     -406.60773593  energy(sigma->0) =     -406.61291946


--------------------------------------------------------------------------------------------------------




--------------------------------------- Iteration      1(   3)  ---------------------------------------


    POTLOK:  cpu time    0.0226: real time    0.0231
    SETDIJ:  cpu time    0.0053: real time    0.0053
     EDDAV:  cpu time   29.9358: real time   29.9652
       DOS:  cpu time    0.0040: real time    0.0040
    CHARGE:  cpu time    0.5924: real time    0.5929
    MIXING:  cpu time    0.0010: real time    0.0008
    --------------------------------------------
      LOOP:  cpu time   30.5611: real time   30.5913

 eigenvalue-minimisations  : 27320
 total energy-change (2. order) : 0.5518142E+02  (-0.7864560E+02)
 number of electron     198.0000013 magnetization 
 augmentation part       32.9974640 magnetization 

 Broyden mixing:
  rms(total) = 0.38617E+01    rms(broyden)= 0.38617E+01
  rms(prec ) = 0.60227E+01
  weight for this iteration     100.00

 eigenvalues of (default mixing * dielectric matrix)
  average eigenvalue GAMMA=   0.4560
  0.6341  0.2779

 Free energy of the ion-electron system (eV)
  ---------------------------------------------------
  alpha Z        PSCENC =      1195.67725051
  Ewald energy   TEWEN  =    -11425.97941758
  -Hartree energ DENC   =     -2977.16640813
  -exchange      EXHF   =         0.00000000
  -V(xc)+E(xc)   XCENC  =      -890.60440994
  PAW double counting   =     19296.19444135   -17799.77920338
  entropy T*S    EENTRO =        -0.01002177
  eigenvalues    EBANDS =      -755.67425815
  atomic energy  EATOM  =     13005.90793652
  Solvation  Ediel_sol  =         0.00000000
  ---------------------------------------------------
  free energy    TOTEN  =      -351.43409056 eV

  energy without entropy =     -351.42406879  energy(sigma->0) =     -351.43074997


--------------------------------------------------------------------------------------------------------




--------------------------------------- Iteration      1(   4)  ---------------------------------------


    POTLOK:  cpu time    0.0228: real time    0.0233
    SETDIJ:  cpu time    0.0052: real time    0.0052
     EDDAV:  cpu time   26.9733: real time   26.9992
       DOS:  cpu time    0.0039: real time    0.0039
    CHARGE:  cpu time    0.5915: real time    0.5919
    MIXING:  cpu time    0.0010: real time    0.0010
    --------------------------------------------
      LOOP:  cpu time   27.5977: real time   27.6246

 eigenvalue-minimisations  : 24208
 total energy-change (2. order) : 0.1996443E+02  (-0.1494150E+02)
 number of electron     198.0000012 magnetization 
 augmentation part       31.1608961 magnetization 

 Broyden mixing:
  rms(total) = 0.28763E+01    rms(broyden)= 0.28763E+01
  rms(prec ) = 0.38656E+01
  weight for this iteration     100.00

 eigenvalues of (default mixing * dielectric matrix)
  average eigenvalue GAMMA=   0.4143
  0.6636  0.2896  0.2896

 Free energy of the ion-electron system (eV)
  ---------------------------------------------------
  alpha Z        PSCENC =      1195.67725051
  Ewald energy   TEWEN  =    -11425.97941758
  -Hartree energ DENC   =     -2983.12375396
  -exchange      EXHF   =         0.00000000
  -V(xc)+E(xc)   XCENC  =      -890.30205611
  PAW double counting   =     19232.63384772   -17736.09877014
  entropy T*S    EENTRO =        -0.00819005
  eigenvalues    EBANDS =      -730.17650405
  atomic energy  EATOM  =     13005.90793652
  Solvation  Ediel_sol  =         0.00000000
  ---------------------------------------------------
  free energy    TOTEN  =      -331.46965712 eV

  energy without entropy =     -331.46146708  energy(sigma->0) =     -331.46692711


--------------------------------------------------------------------------------------------------------




--------------------------------------- Iteration      1(   5)  ---------------------------------------


    POTLOK:  cpu time    0.0369: real time    0.0439
    SETDIJ:  cpu time    0.0090: real time    0.0091
     EDDAV:  cpu time   28.6377: real time   28.6641
       DOS:  cpu time    0.0038: real time    0.0038
    CHARGE:  cpu time    0.5914: real time    0.5919
    MIXING:  cpu time    0.0010: real time    0.0010
    --------------------------------------------
      LOOP:  cpu time   29.2798: real time   29.3138

 eigenvalue-minimisations  : 25856
 total energy-change (2. order) : 0.7938800E+01  (-0.4887852E+01)
 number of electron     198.0000010 magnetization 
 augmentation part       32.8196747 magnetization 

 Broyden mixing:
  rms(total) = 0.26573E+01    rms(broyden)= 0.26573E+01
  rms(prec ) = 0.36069E+01
  weight for this iteration     100.00

 eigenvalues of (default mixing * dielectric matrix)
  average eigenvalue GAMMA=   0.5332
  0.8665  0.6314  0.4538  0.1811

 Free energy of the ion-electron system (eV)
  ---------------------------------------------------
  alpha Z        PSCENC =      1195.67725051
  Ewald energy   TEWEN  =    -11425.97941758
  -Hartree energ DENC   =     -2991.29895208
  -exchange      EXHF   =         0.00000000
  -V(xc)+E(xc)   XCENC  =      -889.62801931
  PAW double counting   =     19192.19965476   -17691.96838670
  entropy T*S    EENTRO =         0.00691403
  eigenvalues    EBANDS =      -718.44783718
  atomic energy  EATOM  =     13005.90793652
  Solvation  Ediel_sol  =         0.00000000
  ---------------------------------------------------
  free energy    TOTEN  =      -323.53085701 eV

  energy without entropy =     -323.53777105  energy(sigma->0) =     -323.53316169


--------------------------------------------------------------------------------------------------------




--------------------------------------- Iteration      1(   6)  ---------------------------------------


    POTLOK:  cpu time    0.0236: real time    0.0239
    SETDIJ:  cpu time    0.0053: real time    0.0053
     EDDAV:  cpu time   26.6947: real time   26.7195
       DOS:  cpu time    0.0041: real time    0.0041
    CHARGE:  cpu time    0.5934: real time    0.5938
    MIXING:  cpu time    0.0010: real time    0.0010
    --------------------------------------------
      LOOP:  cpu time   27.3221: real time   27.3476

 eigenvalue-minimisations  : 23880
 total energy-change (2. order) :-0.3994212E+00  (-0.7081399E+01)
 number of electron     198.0000012 magnetization 
 augmentation part       34.6698248 magnetization 

 Broyden mixing:
  rms(total) = 0.26485E+01    rms(broyden)= 0.26485E+01
  rms(prec ) = 0.40184E+01
  weight for this iteration     100.00

 eigenvalues of (default mixing * dielectric matrix)
  average eigenvalue GAMMA=   0.6039
  1.7035  0.4548  0.4548  0.2296  0.1771

 Free energy of the ion-electron system (eV)
  ---------------------------------------------------
  alpha Z        PSCENC =      1195.67725051
  Ewald energy   TEWEN  =    -11425.97941758
  -Hartree energ DENC   =     -2998.67656845
  -exchange      EXHF   =         0.00000000
  -V(xc)+E(xc)   XCENC  =      -888.67445524
  PAW double counting   =     19126.31294907   -17621.80974371
  entropy T*S    EENTRO =        -0.00147195
  eigenvalues    EBANDS =      -716.68675744
  atomic energy  EATOM  =     13005.90793652
  Solvation  Ediel_sol  =         0.00000000
  ---------------------------------------------------
  free energy    TOTEN  =      -323.93027826 eV

  energy without entropy =     -323.92880631  energy(sigma->0) =     -323.92978761


--------------------------------------------------------------------------------------------------------




--------------------------------------- Iteration      1(   7)  ---------------------------------------


    POTLOK:  cpu time    0.0258: real time    0.0306
    SETDIJ:  cpu time    0.0053: real time    0.0053
     EDDAV:  cpu time   26.9899: real time   27.0148
       DOS:  cpu time    0.0043: real time    0.0043
    CHARGE:  cpu time    0.5920: real time    0.5925
    MIXING:  cpu time    0.0011: real time    0.0011
    --------------------------------------------
      LOOP:  cpu time   27.6184: real time   27.6486

 eigenvalue-minimisations  : 24176
 total energy-change (2. order) : 0.2072818E+01  (-0.4961053E+01)
 number of electron     198.0000009 magnetization 
 augmentation part       33.7051981 magnetization 

 Broyden mixing:
  rms(total) = 0.19688E+01    rms(broyden)= 0.19688E+01
  rms(prec ) = 0.28884E+01
  weight for this iteration     100.00

 eigenvalues of (default mixing * dielectric matrix)
  average eigenvalue GAMMA=   0.6191
  2.0256  0.5254  0.5254  0.2891  0.1907  0.1586

 Free energy of the ion-electron system (eV)
  ---------------------------------------------------
  alpha Z        PSCENC =      1195.67725051
  Ewald energy   TEWEN  =    -11425.97941758
  -Hartree energ DENC   =     -2995.91760136
  -exchange      EXHF   =         0.00000000
  -V(xc)+E(xc)   XCENC  =      -888.67807177
  PAW double counting   =     19024.51617717   -17520.15428465
  entropy T*S    EENTRO =        -0.01511654
  eigenvalues    EBANDS =      -717.21433210
  atomic energy  EATOM  =     13005.90793652
  Solvation  Ediel_sol  =         0.00000000
  ---------------------------------------------------
  free energy    TOTEN  =      -321.85745980 eV

  energy without entropy =     -321.84234325  energy(sigma->0) =     -321.85242095


--------------------------------------------------------------------------------------------------------




--------------------------------------- Iteration      1(   8)  ---------------------------------------


    POTLOK:  cpu time    0.0296: real time    0.0356
    SETDIJ:  cpu time    0.0053: real time    0.0054
     EDDAV:  cpu time   26.1056: real time   26.1293
       DOS:  cpu time    0.0042: real time    0.0042
    CHARGE:  cpu time    0.5922: real time    0.5927
    MIXING:  cpu time    0.0012: real time    0.0012
    --------------------------------------------
      LOOP:  cpu time   26.7380: real time   26.7684

 eigenvalue-minimisations  : 23200
 total energy-change (2. order) : 0.1197567E+01  (-0.2935604E+01)
 number of electron     198.0000010 magnetization 
 augmentation part       33.1781701 magnetization 

 Broyden mixing:
  rms(total) = 0.14879E+01    rms(broyden)= 0.14879E+01
  rms(prec ) = 0.20745E+01
  weight for this iteration     100.00

 eigenvalues of (default mixing * dielectric matrix)
  average eigenvalue GAMMA=   0.6420
  2.3301  0.5823  0.5823  0.3278  0.3278  0.1846  0.1593

 Free energy of the ion-electron system (eV)
  ---------------------------------------------------
  alpha Z        PSCENC =      1195.67725051
  Ewald energy   TEWEN  =    -11425.97941758
  -Hartree energ DENC   =     -2979.44768081
  -exchange      EXHF   =         0.00000000
  -V(xc)+E(xc)   XCENC  =      -889.09451153
  PAW double counting   =     18919.39283228   -17416.48413474
  entropy T*S    EENTRO =        -0.00829718
  eigenvalues    EBANDS =      -730.62387014
  atomic energy  EATOM  =     13005.90793652
  Solvation  Ediel_sol  =         0.00000000
  ---------------------------------------------------
  free energy    TOTEN  =      -320.65989267 eV

  energy without entropy =     -320.65159549  energy(sigma->0) =     -320.65712694


--------------------------------------------------------------------------------------------------------




--------------------------------------- Iteration      1(   9)  ---------------------------------------


    POTLOK:  cpu time    0.0223: real time    0.0228
    SETDIJ:  cpu time    0.0052: real time    0.0052
     EDDAV:  cpu time   27.5118: real time   27.5376
       DOS:  cpu time    0.0043: real time    0.0042
    CHARGE:  cpu time    0.5926: real time    0.5930
[...]
    114       7.6937     -0.00000
    115       7.7548     -0.00000
    116       7.8099     -0.00000
    117       7.8736     -0.00000
    118       7.9430     -0.00000
    119       7.9772     -0.00000
    120       8.0083     -0.00000

 k-point    63 :      -0.2000   -0.2000    0.4000
  band No.  band energies     occupation 
      1     -47.5543      2.00000
      2     -47.5320      2.00000
      3     -47.4908      2.00000
      4     -47.4466      2.00000
      5     -47.4165      2.00000
      6     -47.3333      2.00000
      7     -24.1731      2.00000
      8     -24.1058      2.00000
      9     -23.9638      2.00000
     10     -23.9228      2.00000
     11     -23.7103      2.00000
     12     -23.7051      2.00000
     13     -23.6996      2.00000
     14     -23.6550      2.00000
     15     -23.6380      2.00000
     16     -23.6243      2.00000
     17     -23.5984      2.00000
     18     -23.5528      2.00000
     19     -23.5230      2.00000
     20     -23.4963      2.00000
     21     -23.3660      2.00000
     22     -23.3439      2.00000
     23     -23.2026      2.00000
     24     -23.1044      2.00000
     25       0.2778      2.00000
     26       0.5572      2.00000
     27       2.1284      2.00000
     28       2.3312      2.00000
     29       2.4061      2.00000
     30       2.5598      2.00000
     31       2.6694      2.00000
     32       2.6868      2.00000
     33       2.8331      2.00000
     34       2.8971      2.00000
     35       2.9483      2.00000
     36       3.0106      2.00000
     37       3.0604      2.00000
     38       3.1187      2.00000
     39       3.1755      2.00000
     40       3.2680      2.00000
     41       3.3030      2.00000
     42       3.3411      2.00000
     43       3.4272      2.00000
     44       3.4899      2.00000
     45       3.6038      2.00000
     46       3.6308      2.00000
     47       3.8254      2.00000
     48       3.8668      2.00000
     49       3.9529      2.00000
     50       3.9786      2.00000
     51       4.0285      2.00000
     52       4.0953      2.00000
     53       4.1193      2.00000
     54       4.2059      2.00000
     55       4.2673      2.00000
     56       4.3513      2.00000
     57       4.4924      2.00000
     58       4.5801      2.00000
     59       4.6565      2.00000
     60       4.7398      2.00000
     61       4.7642      2.00000
     62       4.8149      2.00000
     63       4.8310      2.00000
     64       4.8830      2.00000
     65       4.9397      2.00000
     66       4.9699      2.00000
     67       5.0189      2.00000
     68       5.0771      2.00000
     69       5.1210      2.00000
     70       5.1377      2.00000
     71       5.2478      2.00000
     72       5.2978      2.00000
     73       5.3294      2.00000
     74       5.3560      2.00000
     75       5.4417      2.00000
     76       5.4807      2.00000
     77       5.5144      2.00000
     78       5.5464      2.00000
     79       5.6059      2.00000
     80       5.6402      2.00000
     81       5.7107      2.00000
     82       5.7550      2.00001
     83       5.8062      2.00005
     84       5.8530      2.00018
     85       5.8888      2.00048
     86       5.9203      2.00105
     87       5.9794      2.00401
     88       5.9855      2.00455
     89       6.0400      2.01267
     90       6.0740      2.02178
     91       6.0991      2.03086
     92       6.1239      2.04151
     93       6.1787      2.06519
     94       6.2148      2.07065
     95       6.2308      2.06671
     96       6.2623      2.04056
     97       6.2862      1.99885
     98       6.3230      1.88657
     99       6.3427      1.79923
    100       6.4743      0.82967
    101       6.5381      0.35330
    102       6.6302     -0.01585
    103       6.6550     -0.05123
    104       6.7369     -0.06246
    105       6.7708     -0.04760
    106       6.8779     -0.01067
    107       6.9627     -0.00190
    108       7.0465     -0.00023
    109       7.3342     -0.00000
    110       7.4442     -0.00000
    111       7.4984     -0.00000
    112       7.5378     -0.00000
    113       7.6364     -0.00000
    114       8.0731     -0.00000
    115       8.1322     -0.00000
    116       8.1910     -0.00000
    117       8.2852     -0.00000
    118       8.3140     -0.00000
    119       8.3641     -0.00000
    120       8.4200     -0.00000


--------------------------------------------------------------------------------------------------------


 soft charge-density along one line, spin component           1
         0         1         2         3         4         5         6         7         8         9
 total charge-density along one line
 
 pseudopotential strength for first ion, spin component:           1
  5.513 -21.007   0.002   0.001  -0.000  -0.005  -0.002   0.001
-21.007   9.882   0.003   0.002  -0.001  -0.000  -0.000   0.000
  0.002   0.003 -10.583  -0.001   0.003   6.848   0.001  -0.004
  0.001   0.002  -0.001 -10.582  -0.006   0.001   6.846   0.006
 -0.000  -0.001   0.003  -0.006 -10.584  -0.004   0.006   6.849
 -0.005  -0.000   6.848   0.001  -0.004   7.407  -0.001   0.002
 -0.002  -0.000   0.001   6.846   0.006  -0.001   7.408  -0.004
  0.001   0.000  -0.004   0.006   6.849   0.002  -0.004   7.406
  0.002   0.001  -0.000  -0.000   0.002   0.001   0.000  -0.003
 -0.001  -0.000   0.001   0.002  -0.000  -0.001  -0.003   0.000
  0.001   0.000  -0.001   0.001   0.000   0.001  -0.001  -0.000
 -0.004  -0.002  -0.000  -0.000   0.001   0.000   0.001  -0.001
 -0.000  -0.000  -0.002   0.000  -0.000   0.002  -0.000   0.000
  0.003   0.001  -0.000  -0.000   0.002   0.001   0.001  -0.004
 -0.001  -0.000   0.001   0.003  -0.000  -0.002  -0.004   0.001
  0.001   0.001  -0.001   0.001   0.000   0.002  -0.002  -0.000
 -0.005  -0.002  -0.000  -0.001   0.001   0.001   0.001  -0.002
 -0.000  -0.000  -0.002   0.000  -0.000   0.003  -0.000   0.001
 total augmentation occupancy for first ion, spin component:           1
  1.996  -0.035  -0.000  -0.000   0.000  -0.000  -0.000   0.000   0.006  -0.004   0.001  -0.009  -0.001  -0.005   0.003  -0.001
 -0.035   1.538  -0.002  -0.001   0.003   0.002   0.000  -0.004   0.015  -0.024  -0.017  -0.037  -0.004  -0.006   0.009   0.007
 -0.000  -0.002   1.998   0.000  -0.000  -0.024  -0.001   0.001   0.007  -0.005  -0.000   0.006  -0.003  -0.004   0.002   0.001
 -0.000  -0.001   0.000   1.998  -0.000  -0.001  -0.024   0.001   0.004  -0.001   0.001   0.007   0.001  -0.003   0.001  -0.000
  0.000   0.003  -0.000  -0.000   1.998   0.001   0.001  -0.024  -0.006   0.006  -0.001  -0.001   0.000   0.003  -0.003   0.000
 -0.000   0.002  -0.024  -0.001   0.001   0.066   0.001  -0.001  -0.007   0.006  -0.000  -0.005   0.002   0.003  -0.002   0.000
 -0.000   0.000  -0.001  -0.024   0.001   0.001   0.066  -0.004  -0.000  -0.005  -0.003  -0.007   0.000   0.000   0.001   0.001
  0.000  -0.004   0.001   0.001  -0.024  -0.001  -0.004   0.066   0.003  -0.005   0.004  -0.001  -0.004  -0.001   0.002  -0.002
  0.006   0.015   0.007   0.004  -0.006  -0.007  -0.000   0.003   2.656  -0.252  -0.045  -0.019  -0.007  -1.008   0.113   0.018
 -0.004  -0.024  -0.005  -0.001   0.006   0.006  -0.005  -0.005  -0.252   2.679  -0.017   0.033   0.025   0.113  -1.012   0.007
  0.001  -0.017  -0.000   0.001  -0.001  -0.000  -0.003   0.004  -0.045  -0.017   2.440  -0.016   0.016   0.017   0.007  -1.010
 -0.009  -0.037   0.006   0.007  -0.001  -0.005  -0.007  -0.001  -0.019   0.033  -0.016   2.662  -0.032   0.005  -0.010   0.017
 -0.001  -0.004  -0.003   0.001   0.000   0.002   0.000  -0.004  -0.007   0.025   0.016  -0.032   2.450   0.002  -0.011  -0.008
 -0.005  -0.006  -0.004  -0.003   0.003   0.003   0.000  -0.001  -1.008   0.113   0.017   0.005   0.002   0.398  -0.050  -0.007
  0.003   0.009   0.002   0.001  -0.003  -0.002   0.001   0.002   0.113  -1.012   0.007  -0.010  -0.011  -0.050   0.398  -0.003
 -0.001   0.007   0.001  -0.000   0.000   0.000   0.001  -0.002   0.018   0.007  -1.010   0.017  -0.008  -0.007  -0.003   0.428
  0.008   0.038  -0.003  -0.004   0.001   0.002   0.003  -0.001   0.005  -0.010   0.017  -1.004   0.033  -0.002   0.004  -0.012
  0.001   0.005   0.003  -0.001  -0.000  -0.001  -0.000   0.003   0.002  -0.011  -0.008   0.033  -1.015  -0.000   0.004   0.004


------------------------ aborting loop because EDIFF is reached ----------------------------------------


    CHARGE:  cpu time    0.5917: real time    0.5923
    FORLOC:  cpu time    0.0056: real time    0.0065
    FORNL :  cpu time    4.0620: real time    4.0650
    STRESS:  cpu time   12.1102: real time   12.1202
    FORCOR:  cpu time    0.0327: real time    0.0330
    FORHAR:  cpu time    0.0112: real time    0.0112
    MIXING:  cpu time    0.0023: real time    0.0023
    OFIELD:  cpu time    0.0001: real time    0.0001

  FORCE on cell =-STRESS in cart. coord.  units (eV):
  Direction    XX          YY          ZZ          XY          YZ          ZX
  --------------------------------------------------------------------------------------
  Alpha Z  1195.67725  1195.67725  1195.67725
  Ewald   -3768.64624 -3453.97157 -4203.39095  -127.91059   442.14534   305.89282
  Hartree  1047.88089  1293.22893   637.37948  -108.40930   398.99392   300.12038
  E(xc)    -887.11796  -886.86665  -887.01310    -0.06360    -0.05239    -0.37940
  Local    -377.33825  -937.97128   468.09776   236.32172  -841.13682  -604.26182
  n-local  -278.95643  -279.10498  -278.85191     0.44032     0.10186     1.23430
  augment   331.19842   331.16937   330.98008    -0.01588    -0.01258    -0.31868
  Kinetic  2722.79788  2722.47533  2722.21774    -1.40926    -0.21660    -1.88275
  Fock        0.00000     0.00000     0.00000     0.00000     0.00000     0.00000
  -------------------------------------------------------------------------------------
  Total     -14.50444   -15.36360   -14.90367    -1.04657    -0.17726     0.40487
  in kB     -47.72527   -50.55221   -49.03886    -3.44363    -0.58326     1.33217
  external pressure =      -49.11 kB  Pullay stress =        0.00 kB


 VOLUME and BASIS-vectors are now :
 -----------------------------------------------------------------------------
  energy-cutoff  :      600.00
  volume of cell :      486.93
      direct lattice vectors                 reciprocal lattice vectors
    -3.190000000 -3.190000000 -3.190000000    -0.135841170 -0.125391850 -0.052246604
     1.595000000  1.595000000 -7.975000000     0.041797283  0.062695925 -0.104493208
     7.975000000 -7.975000000 -1.595000000     0.062695925 -0.062695925  0.000000000

  length of vectors
     5.525242076  8.287863114 11.390578344     0.192108425  0.128827879  0.088665427


 FORCES acting on ions
    electron-ion (+dipol)            ewald-force                    non-local-force                 convergence-correction
 -----------------------------------------------------------------------------------------------
   0.149E+03 0.405E+02 -.191E+03   -.149E+03 -.399E+02 0.192E+03   0.362E+00 -.233E+00 -.116E+00   -.639E-01 0.150E+00 -.187E+00
   -.796E+02 -.186E+03 0.110E+03   0.800E+02 0.186E+03 -.110E+03   0.446E-01 -.319E-01 -.205E+00   -.132E+00 0.144E+00 0.845E-01
   -.248E+02 0.803E+02 -.273E+02   0.245E+02 -.800E+02 0.274E+02   0.112E+00 -.633E-02 -.251E+00   0.194E-01 -.144E-01 -.398E-01
   -.604E+02 0.104E+03 -.789E+02   0.607E+02 -.104E+03 0.791E+02   -.638E-01 0.307E-01 -.180E+00   0.883E-01 -.164E-01 -.541E-01
   -.231E+02 -.108E+03 0.250E+03   0.230E+02 0.109E+03 -.250E+03   0.538E-01 0.296E+00 -.231E+00   0.144E-01 -.340E-01 -.619E-01
   0.374E+01 0.762E+02 -.274E+02   -.423E+01 -.760E+02 0.271E+02   0.336E+00 0.605E-01 0.225E-02   -.881E-01 -.412E-02 -.245E-01
   0.117E+02 0.474E+02 -.914E+02   -.115E+02 -.477E+02 0.914E+02   -.114E+00 -.176E+00 0.147E+00   -.149E-01 0.863E-02 -.400E-02
   -.160E+02 0.577E+01 0.126E+02   0.158E+02 -.604E+01 -.123E+02   -.251E+00 -.539E-01 0.232E+00   -.111E+00 0.454E-01 0.179E-01
   0.396E+02 -.496E+02 0.422E+02   -.397E+02 0.499E+02 -.421E+02   -.542E-01 0.879E-02 -.113E+00   -.186E-01 -.363E-01 0.436E-01
   -.827E+02 -.629E+02 0.106E+03   0.827E+02 0.633E+02 -.107E+03   0.243E+00 0.533E-01 -.164E+00   0.287E-02 -.121E-01 -.440E-02
   0.315E+02 0.920E+02 -.701E+02   -.316E+02 -.922E+02 0.706E+02   -.110E+00 -.179E+00 -.190E+00   0.592E-01 0.397E-01 -.215E-01
   0.377E+02 -.506E+02 0.852E+02   -.378E+02 0.508E+02 -.856E+02   0.286E+00 -.823E-02 -.247E+00   -.629E-01 0.215E-01 0.699E-02
   0.544E+02 0.368E+02 -.790E+02   -.543E+02 -.368E+02 0.791E+02   0.185E-01 -.466E+00 0.393E+00   -.802E-03 -.373E-02 0.123E-01
   0.520E+02 0.225E+02 -.131E+03   -.516E+02 -.224E+02 0.131E+03   -.115E+00 0.263E+00 0.913E-01   0.302E-01 -.192E-01 -.485E-02
   -.375E+02 -.358E+02 0.125E+02   0.371E+02 0.361E+02 -.126E+02   0.569E-01 0.149E+00 -.642E-01   0.198E-01 0.108E-02 -.286E-01
   0.284E+00 0.598E+02 -.448E+02   -.688E+00 -.598E+02 0.452E+02   -.331E+00 -.144E+00 0.383E+00   0.265E-02 0.170E-01 -.911E-02
   0.992E+02 0.471E+02 -.969E+02   -.996E+02 -.471E+02 0.974E+02   -.378E+00 -.487E-01 0.706E-01   0.225E-01 -.182E-01 -.133E-01
   -.523E+01 0.515E+01 -.370E+01   0.550E+01 -.522E+01 0.327E+01   0.101E+00 -.252E+00 0.147E+00   -.451E-01 0.293E-01 0.502E-01
   -.164E+02 0.463E+02 -.638E+02   0.167E+02 -.461E+02 0.641E+02   -.144E+00 0.666E-01 0.193E+00   -.170E-02 -.170E-01 -.225E-01
   0.301E+02 0.912E+01 -.375E+02   -.296E+02 -.951E+01 0.376E+02   0.174E-01 -.174E+00 0.870E-01   0.531E-02 0.495E-01 -.332E-01
   -.539E+02 -.172E+02 0.934E+02   0.540E+02 0.169E+02 -.937E+02   -.197E+00 0.783E-01 -.910E-01   0.133E-01 -.722E-02 0.250E-02
   -.688E+01 -.839E+01 0.202E+02   0.674E+01 0.831E+01 -.205E+02   -.222E+00 0.729E-01 -.458E-01   0.295E-01 -.229E-01 0.202E-01
   -.272E+02 -.240E+02 0.757E+02   0.269E+02 0.240E+02 -.752E+02   0.961E-01 -.450E-01 0.286E-01   -.283E-01 -.149E-01 0.268E-01
   0.435E+01 -.533E+01 0.545E+02   -.396E+01 0.509E+01 -.550E+02   0.210E+00 0.983E-01 -.237E+00   0.221E-01 -.933E-03 -.161E-01
   -.226E+02 -.352E+02 0.464E+02   0.224E+02 0.349E+02 -.462E+02   0.202E+00 -.721E-02 0.385E+00   0.538E-01 -.837E-01 -.126E-01
   -.814E+02 -.339E+02 0.894E+02   0.821E+02 0.340E+02 -.900E+02   -.103E+00 0.787E-01 0.166E+00   -.212E-01 -.746E-02 0.457E-01
   -.193E+02 -.746E+02 0.597E+02   0.192E+02 0.749E+02 -.599E+02   0.977E-01 -.940E-04 -.221E-01   0.521E-01 -.313E-01 0.231E-01
   -.186E+02 0.272E+02 -.350E+02   0.188E+02 -.277E+02 0.347E+02   0.311E-02 0.947E-01 -.139E+00   0.177E-01 0.480E-01 -.265E-01
   0.472E+02 0.337E+02 -.856E+02   -.474E+02 -.338E+02 0.860E+02   -.582E-01 -.138E+00 0.160E+00   -.782E-02 -.163E-01 0.178E-01
   0.150E+02 -.413E+02 0.483E+01   -.149E+02 0.416E+02 -.492E+01   0.128E+00 0.427E-01 -.104E+00   0.819E-02 -.276E-01 0.275E-01
 -----------------------------------------------------------------------------------------------
   -.880E-01 0.419E+00 0.109E+00   -.711E-14 0.306E-12 0.153E-12   0.226E+00 -.571E+00 0.862E-01   -.135E+00 0.166E+00 -.185E+00
 
 
 POSITION                                       TOTAL-FORCE (eV/Angst)
 -----------------------------------------------------------------------------------
      1.59500     -4.78500    -11.16500         0.040359      0.444315      0.244261
      1.59500     -4.78500     -4.78500         0.305905     -0.126986      0.001903
     -1.59500     -1.59500     -1.59500        -0.121322      0.348615     -0.197416
      0.00000      0.00000      0.00000         0.247303     -0.025367     -0.017980
      6.38000     -6.38000     -3.19000        -0.044115      0.652234     -0.490486
      4.78500     -4.78500     -1.59500        -0.240396      0.258252     -0.335856
      0.00000     -3.19000     -9.57000         0.004110     -0.534198      0.164050
      1.59500     -4.78500     -7.97500        -0.558943     -0.282894      0.585763
      0.00000     -3.19000     -6.38000        -0.150806      0.297247      0.036845
     -1.59500     -1.59500     -4.78500         0.176183      0.470122     -0.563504
      4.78500     -4.78500     -7.97500        -0.129238     -0.362931      0.258821
      3.19000     -3.19000     -3.19000         0.137922      0.177098     -0.618156
     -1.59500     -1.59500     -7.97500         0.127572     -0.463040      0.430345
      4.78500     -7.97500    -11.16500         0.246962      0.353795     -0.082187
     -0.00000     -3.19000     -3.19000        -0.271176      0.459807     -0.125808
      1.59500     -1.59500     -7.97500        -0.732237     -0.127124      0.771138
      6.38000     -6.38000     -9.57000        -0.821685     -0.094527      0.624462
      3.19000     -3.19000     -6.38000         0.323992     -0.295445     -0.241690
      3.19000     -6.38000     -9.57000         0.073218      0.225933      0.471653
      3.19000     -3.19000     -9.57000         0.543645     -0.514672      0.136070
     -0.00000     -0.00000     -3.19000        -0.030236     -0.175365     -0.395910
      6.38000     -6.38000     -6.38000        -0.338709     -0.023690     -0.275831
      4.78500     -4.78500     -4.78500        -0.235338     -0.066755      0.515290
      1.59500     -1.59500     -1.59500         0.621882     -0.140581     -0.826556
      4.78500     -7.97500     -7.97500         0.075787     -0.364424      0.563439
      3.19000     -6.38000     -6.38000         0.536429      0.141018     -0.393405
      4.78500     -7.97500     -4.78500         0.010549      0.238633     -0.184789
      3.19000     -6.38000     -3.19000         0.189161     -0.455763     -0.451398
      0.00000      0.00000     -6.38000        -0.234423     -0.239532      0.562474
      1.59500     -1.59500     -4.78500         0.247647      0.226224     -0.165542
 -----------------------------------------------------------------------------------
    total drift:                                0.003284      0.014695      0.010443


--------------------------------------------------------------------------------------------------------



  FREE ENERGIE OF THE ION-ELECTRON SYSTEM (eV)
  ---------------------------------------------------
  free  energy   TOTEN  =      -318.61311433 eV

  energy  without entropy=     -318.60110889  energy(sigma->0) =     -318.60911252
 


--------------------------------------------------------------------------------------------------------


    POTLOK:  cpu time    0.0276: real time    0.0276


--------------------------------------------------------------------------------------------------------


 stress matrix after NEB project (eV)
    -14.50444     -1.04657      0.40487
     -1.04657    -15.36360     -0.17726
      0.40487     -0.17726    -14.90367
  FORCES: max atom, RMS     1.070974    0.631090
  FORCE total and by dimension    3.456625    0.826556
  Stress total and by dimension   25.905975   15.363596
 writing wavefunctions
     LOOP+:  cpu time  668.8658: real time  674.3120
    4ORBIT:  cpu time    0.0000: real time    0.0000

 total amount of memory used by VASP MPI-rank0   108477. kBytes
=======================================================================

   base      :      30000. kBytes
   nonlr-proj:       7129. kBytes
   fftplans  :       2330. kBytes
   grid      :       4665. kBytes
   one-center:        124. kBytes
   wavefun   :      64229. kBytes
 
  
  
 General timing and accounting informations for this job:
 ========================================================
  
                  Total CPU time used (sec):      678.921
                            User time (sec):      673.082
                          System time (sec):        5.839
                         Elapsed time (sec):      694.264
  
                   Maximum memory used (kb):      159076.
                   Average memory used (kb):           0.
  
                          Minor page faults:        76110
                          Major page faults:            0
                 Voluntary context switches:         1849
