 running on   32 total cores
 distrk:  each k-point on   32 cores,    1 groups
 distr:  one band on    4 cores,    8 groups
 using from now: INCAR     
 vasp.5.4.4.18Apr17-6-g9f103f2a35 (build Aug 09 2018 16:20:53) complex          
  
 POSCAR found type information on POSCAR  Nb Mo Ta Ti V 
 POSCAR found :  5 types and      30 ions
 scaLAPACK will be used

 ----------------------------------------------------------------------------- 
|                                                                             |
|  ADVICE TO THIS USER RUNNING 'VASP/VAMP'   (HEAR YOUR MASTER'S VOICE ...):  |
|                                                                             |
|      You enforced a specific xc-type in the INCAR file,                     |
|      a different type was found on the POTCAR file                          |
|          I HOPE YOU KNOW, WHAT YOU ARE  DOING                               |
|                                                                             |
 ----------------------------------------------------------------------------- 

 LDA part: xc-table for Pade appr. of Perdew
 POSCAR found type information on POSCAR  Nb Mo Ta Ti V 
 POSCAR found :  5 types and      30 ions
 found WAVECAR, reading the header
 POSCAR, INCAR and KPOINTS ok, starting setup
 FFT: planning ...
 reading WAVECAR
 the WAVECAR file was read successfully
 charge-density read from file: Nb                                      
 entering main loop
       N       E                     dE             d eps       ncg     rms          rms(c)
DAV:   1    -0.363429988508E+03   -0.36343E+03   -0.74087E+00 26784   0.603E+00    0.513E+01
DAV:   2    -0.406615511229E+03   -0.43186E+02   -0.16735E+03 24000   0.250E+02    0.739E+01
DAV:   3    -0.351434090558E+03    0.55181E+02   -0.78646E+02 27320   0.138E+02    0.386E+01
DAV:   4    -0.331469657123E+03    0.19964E+02   -0.14941E+02 24208   0.563E+01    0.288E+01
DAV:   5    -0.323530857013E+03    0.79388E+01   -0.48879E+01 25856   0.253E+01    0.266E+01
DAV:   6    -0.323930278262E+03   -0.39942E+00   -0.70814E+01 23880   0.371E+01    0.265E+01
DAV:   7    -0.321857459797E+03    0.20728E+01   -0.49611E+01 24176   0.368E+01    0.197E+01
DAV:   8    -0.320659892671E+03    0.11976E+01   -0.29356E+01 23200   0.249E+01    0.149E+01
DAV:   9    -0.321836788296E+03   -0.11769E+01   -0.25550E+01 24744   0.203E+01    0.164E+01
DAV:  10    -0.320265330461E+03    0.15715E+01   -0.25921E+01 23336   0.236E+01    0.115E+01
DAV:  11    -0.318946334359E+03    0.13190E+01   -0.61659E+00 23952   0.100E+01    0.588E+00
DAV:  12    -0.318812660276E+03    0.13367E+00   -0.36330E+00 25800   0.732E+00    0.506E+00
DAV:  13    -0.318752440308E+03    0.60220E-01   -0.22242E+00 24544   0.635E+00    0.420E+00
DAV:  14    -0.318710936377E+03    0.41504E-01   -0.89353E-01 25560   0.410E+00    0.329E+00
DAV:  15    -0.318646994422E+03    0.63942E-01   -0.74513E-01 24640   0.375E+00    0.187E+00
DAV:  16    -0.318638246046E+03    0.87484E-02   -0.32312E-01 26832   0.217E+00    0.163E+00
DAV:  17    -0.318625709174E+03    0.12537E-01   -0.19767E-01 25896   0.160E+00    0.108E+00
DAV:  18    -0.318617663104E+03    0.80461E-02   -0.87920E-02 24560   0.111E+00    0.698E-01
DAV:  19    -0.318614628693E+03    0.30344E-02   -0.20268E-02 24240   0.499E-01    0.457E-01
DAV:  20    -0.318613765645E+03    0.86305E-03   -0.10772E-02 24840   0.383E-01    0.317E-01
DAV:  21    -0.318613631836E+03    0.13381E-03   -0.79058E-03 23904   0.323E-01    0.270E-01
DAV:  22    -0.318613077779E+03    0.55406E-03   -0.36523E-03 23328   0.257E-01    0.885E-02
DAV:  23    -0.318613114333E+03   -0.36554E-04   -0.82315E-04 18392   0.114E-01
   1 F= -.31861311E+03 E0= -.31860911E+03  d E =-.120054E-01
 writing wavefunctions
VASP is done!
