<?xml version="1.0" encoding="ISO-8859-1"?>
<modeling>
 <generator>
  <i name="program" type="string">vasp </i>
  <i name="version" type="string">5.4.4.18Apr17-6-g9f103f2a35  </i>
  <i name="subversion" type="string">(build Aug 09 2018 16:20:53) complex            parallel </i>
  <i name="platform" type="string">LinuxIFC </i>
  <i name="date" type="string">2020 04 28 </i>
  <i name="time" type="string">21:18:37 </i>
 </generator>
 <incar>
  <i type="string" name="SYSTEM"> Nb - Mo - Ta - Ti - V SQS</i>
  <i type="string" name="PREC">normal</i>
  <i type="int" name="ICHARG">     1</i>
  <i type="int" name="NELM">   100</i>
  <i type="int" name="IBRION">     2</i>
  <i name="ENCUT">    600.00000000</i>
  <i type="string" name="LREAL"> Auto</i>
  <i type="int" name="ISMEAR">     1</i>
  <i name="SIGMA">      0.20000000</i>
  <v type="int" name="KPOINT_BSE">    -1     0     0     0</v>
  <i type="int" name="NELM">   100</i>
  <i type="string" name="GGA"> PS</i>
 </incar>
 <structure name="primitive_cell" >
  <crystal>
   <varray name="basis" >
    <v>      -3.19000000      -3.19000000      -3.19000000 </v>
    <v>       1.59500000       1.59500000      -7.97500000 </v>
    <v>       7.97500000      -7.97500000      -1.59500000 </v>
   </varray>
   <i name="volume">    486.92638500 </i>
   <varray name="rec_basis" >
    <v>      -0.13584117      -0.12539185      -0.05224660 </v>
    <v>       0.04179728       0.06269592      -0.10449321 </v>
    <v>       0.06269592      -0.06269592       0.00000000 </v>
   </varray>
  </crystal>
  <varray name="positions" >
   <v>      -0.03333333      -0.06666667       0.40000000 </v>
   <v>       0.30000000      -0.40000000       0.40000000 </v>
   <v>      -0.10000000      -0.20000000       0.20000000 </v>
   <v>       0.06666667       0.13333333       0.20000000 </v>
   <v>       0.46666667      -0.06666667       0.40000000 </v>
   <v>      -0.13333333      -0.26666667      -0.40000000 </v>
   <v>       0.03333333       0.06666667      -0.40000000 </v>
   <v>      -0.36666667       0.26666667       0.40000000 </v>
   <v>       0.40000000      -0.20000000       0.20000000 </v>
   <v>      -0.20000000      -0.40000000       0.40000000 </v>
   <v>      -0.43333333       0.13333333       0.20000000 </v>
   <v>       0.36666667      -0.26666667      -0.40000000 </v>
   <v>       0.13333333       0.26666667       0.40000000 </v>
   <v>      -0.46666667       0.06666667      -0.40000000 </v>
   <v>       0.23333333       0.46666667       0.20000000 </v>
   <v>       0.20000000       0.40000000      -0.40000000 </v>
   <v>       0.00000000       0.00000000       0.00000000 </v>
   <v>      -0.06666667      -0.13333333      -0.20000000 </v>
   <v>      -0.30000000       0.40000000      -0.40000000 </v>
   <v>      -0.26666667       0.46666667       0.20000000 </v>
   <v>       0.33333333      -0.33333333       0.00000000 </v>
   <v>       0.43333333      -0.13333333      -0.20000000 </v>
   <v>      -0.50000000       0.00000000       0.00000000 </v>
   <v>       0.26666667      -0.46666667      -0.20000000 </v>
   <v>      -0.33333333       0.33333333       0.00000000 </v>
   <v>      -0.40000000       0.20000000      -0.20000000 </v>
   <v>      -0.16666667      -0.33333333       0.00000000 </v>
   <v>      -0.23333333      -0.46666667      -0.20000000 </v>
   <v>       0.16666667       0.33333333       0.00000000 </v>
   <v>       0.10000000       0.20000000      -0.20000000 </v>
  </varray>
 </structure>
 <varray name="primitive_index" >
  <v type="int" >        1 </v>
  <v type="int" >       18 </v>
  <v type="int" >        7 </v>
  <v type="int" >       24 </v>
  <v type="int" >       20 </v>
  <v type="int" >       19 </v>
  <v type="int" >        6 </v>
  <v type="int" >        2 </v>
  <v type="int" >       16 </v>
  <v type="int" >        8 </v>
  <v type="int" >       15 </v>
  <v type="int" >       11 </v>
  <v type="int" >       12 </v>
  <v type="int" >       28 </v>
  <v type="int" >       30 </v>
  <v type="int" >       23 </v>
  <v type="int" >        4 </v>
  <v type="int" >       14 </v>
  <v type="int" >       26 </v>
  <v type="int" >        9 </v>
  <v type="int" >       29 </v>
  <v type="int" >       17 </v>
  <v type="int" >        3 </v>
  <v type="int" >       22 </v>
  <v type="int" >       10 </v>
  <v type="int" >       27 </v>
  <v type="int" >       13 </v>
  <v type="int" >       25 </v>
  <v type="int" >       21 </v>
  <v type="int" >        5 </v>
 </varray>
 <kpoints>
  <generation param="Gamma">
   <v type="int" name="divisions">       5        5        5 </v>
   <v name="usershift">      0.00000000       0.00000000       0.00000000 </v>
   <v name="genvec1">      0.20000000      -0.00000000      -0.00000000 </v>
   <v name="genvec2">      0.00000000       0.20000000       0.00000000 </v>
   <v name="genvec3">      0.00000000       0.00000000       0.20000000 </v>
   <v name="shift">      0.00000000       0.00000000       0.00000000 </v>
  </generation>
  <varray name="kpointlist" >
   <v>       0.00000000       0.00000000       0.00000000 </v>
   <v>       0.20000000      -0.00000000       0.00000000 </v>
   <v>       0.40000000      -0.00000000       0.00000000 </v>
   <v>       0.00000000       0.20000000       0.00000000 </v>
   <v>       0.20000000       0.20000000      -0.00000000 </v>
   <v>       0.40000000       0.20000000      -0.00000000 </v>
   <v>      -0.40000000       0.20000000      -0.00000000 </v>
   <v>      -0.20000000       0.20000000       0.00000000 </v>
   <v>       0.00000000       0.40000000       0.00000000 </v>
   <v>       0.20000000       0.40000000       0.00000000 </v>
   <v>       0.40000000       0.40000000      -0.00000000 </v>
   <v>      -0.40000000       0.40000000       0.00000000 </v>
   <v>      -0.20000000       0.40000000       0.00000000 </v>
   <v>       0.00000000       0.00000000       0.20000000 </v>
   <v>       0.20000000      -0.00000000       0.20000000 </v>
   <v>       0.40000000       0.00000000       0.20000000 </v>
   <v>      -0.40000000       0.00000000       0.20000000 </v>
   <v>      -0.20000000       0.00000000       0.20000000 </v>
   <v>       0.00000000       0.20000000       0.20000000 </v>
   <v>       0.20000000       0.20000000       0.20000000 </v>
   <v>       0.40000000       0.20000000       0.20000000 </v>
   <v>      -0.40000000       0.20000000       0.20000000 </v>
   <v>      -0.20000000       0.20000000       0.20000000 </v>
   <v>       0.00000000       0.40000000       0.20000000 </v>
   <v>       0.20000000       0.40000000       0.20000000 </v>
   <v>       0.40000000       0.40000000       0.20000000 </v>
   <v>      -0.40000000       0.40000000       0.20000000 </v>
   <v>      -0.20000000       0.40000000       0.20000000 </v>
   <v>       0.00000000      -0.40000000       0.20000000 </v>
   <v>       0.20000000      -0.40000000       0.20000000 </v>
   <v>       0.40000000      -0.40000000       0.20000000 </v>
   <v>      -0.40000000      -0.40000000       0.20000000 </v>
   <v>      -0.20000000      -0.40000000       0.20000000 </v>
   <v>       0.00000000      -0.20000000       0.20000000 </v>
   <v>       0.20000000      -0.20000000       0.20000000 </v>
   <v>       0.40000000      -0.20000000       0.20000000 </v>
   <v>      -0.40000000      -0.20000000       0.20000000 </v>
   <v>      -0.20000000      -0.20000000       0.20000000 </v>
   <v>       0.00000000       0.00000000       0.40000000 </v>
   <v>       0.20000000      -0.00000000       0.40000000 </v>
   <v>       0.40000000      -0.00000000       0.40000000 </v>
   <v>      -0.40000000       0.00000000       0.40000000 </v>
   <v>      -0.20000000       0.00000000       0.40000000 </v>
   <v>      -0.00000000       0.20000000       0.40000000 </v>
   <v>       0.20000000       0.20000000       0.40000000 </v>
   <v>       0.40000000       0.20000000       0.40000000 </v>
   <v>      -0.40000000       0.20000000       0.40000000 </v>
   <v>      -0.20000000       0.20000000       0.40000000 </v>
   <v>       0.00000000       0.40000000       0.40000000 </v>
   <v>       0.20000000       0.40000000       0.40000000 </v>
   <v>       0.40000000       0.40000000       0.40000000 </v>
   <v>      -0.40000000       0.40000000       0.40000000 </v>
   <v>      -0.20000000       0.40000000       0.40000000 </v>
   <v>       0.00000000      -0.40000000       0.40000000 </v>
   <v>       0.20000000      -0.40000000       0.40000000 </v>
   <v>       0.40000000      -0.40000000       0.40000000 </v>
   <v>      -0.40000000      -0.40000000       0.40000000 </v>
   <v>      -0.20000000      -0.40000000       0.40000000 </v>
   <v>       0.00000000      -0.20000000       0.40000000 </v>
   <v>       0.20000000      -0.20000000       0.40000000 </v>
   <v>       0.40000000      -0.20000000       0.40000000 </v>
   <v>      -0.40000000      -0.20000000       0.40000000 </v>
   <v>      -0.20000000      -0.20000000       0.40000000 </v>
  </varray>
  <varray name="weights" >
   <v>       0.00800000 </v>
   <v>       0.01600000 </v>
   <v>       0.01600000 </v>
   <v>       0.01600000 </v>
   <v>       0.01600000 </v>
   <v>       0.01600000 </v>
   <v>       0.01600000 </v>
   <v>       0.01600000 </v>
   <v>       0.01600000 </v>
   <v>       0.01600000 </v>
   <v>       0.01600000 </v>
   <v>       0.01600000 </v>
   <v>       0.01600000 </v>
   <v>       0.01600000 </v>
   <v>       0.01600000 </v>
   <v>       0.01600000 </v>
   <v>       0.01600000 </v>
   <v>       0.01600000 </v>
   <v>       0.01600000 </v>
   <v>       0.01600000 </v>
   <v>       0.01600000 </v>
   <v>       0.01600000 </v>
   <v>       0.01600000 </v>
   <v>       0.01600000 </v>
   <v>       0.01600000 </v>
   <v>       0.01600000 </v>
   <v>       0.01600000 </v>
   <v>       0.01600000 </v>
   <v>       0.01600000 </v>
   <v>       0.01600000 </v>
   <v>       0.01600000 </v>
   <v>       0.01600000 </v>
   <v>       0.01600000 </v>
   <v>       0.01600000 </v>
   <v>       0.01600000 </v>
   <v>       0.01600000 </v>
   <v>       0.01600000 </v>
   <v>       0.01600000 </v>
   <v>       0.01600000 </v>
   <v>       0.01600000 </v>
   <v>       0.01600000 </v>
   <v>       0.01600000 </v>
   <v>       0.01600000 </v>
   <v>       0.01600000 </v>
   <v>       0.01600000 </v>
   <v>       0.01600000 </v>
   <v>       0.01600000 </v>
   <v>       0.01600000 </v>
   <v>       0.01600000 </v>
   <v>       0.01600000 </v>
   <v>       0.01600000 </v>
   <v>       0.01600000 </v>
   <v>       0.01600000 </v>
   <v>       0.01600000 </v>
   <v>       0.01600000 </v>
   <v>       0.01600000 </v>
   <v>       0.01600000 </v>
   <v>       0.01600000 </v>
   <v>       0.01600000 </v>
   <v>       0.01600000 </v>
   <v>       0.01600000 </v>
   <v>       0.01600000 </v>
   <v>       0.01600000 </v>
  </varray>
 </kpoints>
 <parameters>
  <separator name="general" >
   <i type="string" name="SYSTEM">Nb - Mo - Ta - Ti - V SQS</i>
   <i type="logical" name="LCOMPAT"> F  </i>
  </separator>
  <separator name="electronic" >
   <i type="string" name="PREC">normal</i>
   <i name="ENMAX">    600.00000000</i>
   <i name="ENAUG">    455.65900000</i>
   <i name="EDIFF">      0.00010000</i>
   <i type="int" name="IALGO">    38</i>
   <i type="int" name="IWAVPR">    10</i>
   <i type="int" name="NBANDS">   120</i>
   <i name="NELECT">    198.00000000</i>
   <i type="int" name="TURBO">     0</i>
   <i type="int" name="IRESTART">     0</i>
   <i type="int" name="NREBOOT">     0</i>
   <i type="int" name="NMIN">     0</i>
   <i name="EREF">      0.00000000</i>
   <separator name="electronic smearing" >
    <i type="int" name="ISMEAR">     1</i>
    <i name="SIGMA">      0.20000000</i>
    <i name="KSPACING">      0.50000000</i>
    <i type="logical" name="KGAMMA"> T  </i>
   </separator>
   <separator name="electronic projectors" >
    <i type="logical" name="LREAL"> T  </i>
    <v name="ROPT">     -0.00050000     -0.00050000     -0.00050000     -0.00050000     -0.00050000</v>
    <i type="int" name="LMAXPAW">  -100</i>
    <i type="int" name="LMAXMIX">     2</i>
    <i type="logical" name="NLSPLINE"> F  </i>
   </separator>
   <separator name="electronic startup" >
    <i type="int" name="ISTART">     1</i>
    <i type="int" name="ICHARG">     1</i>
    <i type="int" name="INIWAV">     1</i>
   </separator>
   <separator name="electronic spin" >
    <i type="int" name="ISPIN">     1</i>
    <i type="logical" name="LNONCOLLINEAR"> F  </i>
    <v name="MAGMOM">      1.00000000      1.00000000      1.00000000      1.00000000      1.00000000      1.00000000      1.00000000      1.00000000      1.00000000      1.00000000      1.00000000      1.00000000      1.00000000      1.00000000      1.00000000      1.00000000      1.00000000      1.00000000      1.00000000      1.00000000
      1.00000000      1.00000000      1.00000000      1.00000000      1.00000000      1.00000000      1.00000000      1.00000000      1.00000000      1.00000000</v>
    <i name="NUPDOWN">     -1.00000000</i>
    <i type="logical" name="LSORBIT"> F  </i>
    <v name="SAXIS">      0.00000000      0.00000000      1.00000000</v>
    <i type="logical" name="LSPIRAL"> F  </i>
    <v name="QSPIRAL">      0.00000000      0.00000000      0.00000000</v>
    <i type="logical" name="LZEROZ"> F  </i>
   </separator>
   <separator name="electronic exchange-correlation" >
    <i type="logical" name="LASPH"> F  </i>
    <i type="logical" name="LMETAGGA"> F  </i>
   </separator>
   <separator name="electronic convergence" >
    <i type="int" name="NELM">   100</i>
    <i type="int" name="NELMDL">     0</i>
    <i type="int" name="NELMIN">     2</i>
    <i name="ENINI">    600.00000000</i>
    <separator name="electronic convergence detail" >
     <i type="logical" name="LDIAG"> T  </i>
     <i type="logical" name="LSUBROT"> F  </i>
     <i name="WEIMIN">      0.00000000</i>
     <i name="EBREAK">      0.00000021</i>
     <i name="DEPER">      0.30000000</i>
     <i type="int" name="NRMM">     4</i>
     <i name="TIME">      0.40000000</i>
    </separator>
   </separator>
   <separator name="electronic mixer" >
    <i name="AMIX">      0.40000000</i>
    <i name="BMIX">      1.00000000</i>
    <i name="AMIN">      0.10000000</i>
    <i name="AMIX_MAG">      1.60000000</i>
    <i name="BMIX_MAG">      1.00000000</i>
    <separator name="electronic mixer details" >
     <i type="int" name="IMIX">     4</i>
     <i type="logical" name="MIXFIRST"> F  </i>
     <i type="int" name="MAXMIX">   -45</i>
     <i name="WC">    100.00000000</i>
     <i type="int" name="INIMIX">     1</i>
     <i type="int" name="MIXPRE">     1</i>
     <i type="int" name="MREMOVE">     5</i>
    </separator>
   </separator>
   <separator name="electronic dipolcorrection" >
    <i type="logical" name="LDIPOL"> F  </i>
    <i type="logical" name="LMONO"> F  </i>
    <i type="int" name="IDIPOL">     0</i>
    <i name="EPSILON">      1.00000000</i>
    <v name="DIPOL">   -100.00000000   -100.00000000   -100.00000000</v>
    <i name="EFIELD">      0.00000000</i>
   </separator>
  </separator>
  <separator name="grids" >
   <i type="int" name="NGX">    36</i>
   <i type="int" name="NGY">    50</i>
   <i type="int" name="NGZ">    70</i>
   <i type="int" name="NGXF">    72</i>
   <i type="int" name="NGYF">   100</i>
   <i type="int" name="NGZF">   140</i>
   <i type="logical" name="ADDGRID"> F  </i>
  </separator>
  <separator name="ionic" >
   <i type="int" name="NSW">     0</i>
   <i type="int" name="IBRION">    -1</i>
   <i type="int" name="MDALGO">     0</i>
   <i type="int" name="ISIF">     2</i>
   <i name="PSTRESS">      0.00000000</i>
   <i name="EDIFFG">      0.00100000</i>
   <i type="int" name="NFREE">     1</i>
   <i name="POTIM">      0.50000000</i>
   <i name="SMASS">     -3.00000000</i>
   <i name="SCALEE">      1.00000000</i>
  </separator>
  <separator name="ionic md" >
   <i name="TEBEG">      0.00010000</i>
   <i name="TEEND">      0.00010000</i>
   <i type="int" name="NBLOCK">     1</i>
   <i type="int" name="KBLOCK">     1</i>
   <i type="int" name="NPACO">   256</i>
   <i name="APACO">     16.00000000</i>
  </separator>
  <separator name="symmetry" >
   <i type="int" name="ISYM">     2</i>
   <i name="SYMPREC">      0.00001000</i>
  </separator>
  <separator name="dos" >
   <i type="int" name="LORBIT">     0</i>
   <v name="RWIGS">     -1.00000000     -1.00000000     -1.00000000     -1.00000000     -1.00000000</v>
   <i type="int" name="NEDOS">   301</i>
   <i name="EMIN">     10.00000000</i>
   <i name="EMAX">    -10.00000000</i>
   <i name="EFERMI">      0.00000000</i>
  </separator>
  <separator name="writing" >
   <i type="int" name="NWRITE">     2</i>
   <i type="logical" name="LWAVE"> T  </i>
   <i type="logical" name="LDOWNSAMPLE"> F  </i>
   <i type="logical" name="LCHARG"> T  </i>
   <i type="logical" name="LPARD"> F  </i>
   <i type="logical" name="LVTOT"> F  </i>
   <i type="logical" name="LVHAR"> F  </i>
   <i type="logical" name="LELF"> F  </i>
   <i type="logical" name="LOPTICS"> F  </i>
   <v name="STM">      0.00000000      0.00000000      0.00000000      0.00000000      0.00000000      0.00000000      0.00000000</v>
  </separator>
  <separator name="performance" >
   <i type="int" name="NPAR">     8</i>
   <i type="int" name="NSIM">     4</i>
   <i type="int" name="NBLK">    -1</i>
   <i type="logical" name="LPLANE"> T  </i>
   <i type="logical" name="LSCALAPACK"> T  </i>
   <i type="logical" name="LSCAAWARE"> F  </i>
   <i type="logical" name="LSCALU"> F  </i>
   <i type="logical" name="LASYNC"> F  </i>
   <i type="logical" name="LORBITALREAL"> F  </i>
  </separator>
  <separator name="miscellaneous" >
   <i type="int" name="IDIOT">     3</i>
   <i type="int" name="ISPECIAL">     0</i>
   <i type="logical" name="LMUSIC"> F  </i>
   <v name="POMASS">     92.91000000     95.94000000    180.94800000     47.88000000     50.94100000</v>
   <v name="DARWINR">      0.00000000      0.00000000      0.00000000      0.00000000      0.00000000</v>
   <v name="DARWINV">      1.00000000      1.00000000      1.00000000      1.00000000      1.00000000</v>
   <i type="logical" name="LCORR"> T  </i>
  </separator>
  <i type="logical" name="GGA_COMPAT"> T  </i>
  <i type="logical" name="LBERRY"> F  </i>
  <i type="int" name="ICORELEVEL">     0</i>
  <i type="logical" name="LDAU"> F  </i>
  <i type="int" name="I_CONSTRAINED_M">     0</i>
  <separator name="electronic exchange-correlation" >
   <i type="string" name="GGA">PS</i>
   <i type="int" name="VOSKOWN">     0</i>
   <i type="logical" name="LHFCALC"> F  </i>
   <i type="string" name="PRECFOCK"></i>
   <i type="logical" name="LSYMGRAD"> F  </i>
   <i type="logical" name="LHFONE"> F  </i>
   <i type="logical" name="LRHFCALC"> F  </i>
   <i type="logical" name="LTHOMAS"> F  </i>
   <i type="logical" name="LMODELHF"> F  </i>
   <i name="ENCUT4O">     -1.00000000</i>
   <i type="int" name="EXXOEP">     0</i>
   <i type="int" name="FOURORBIT">     0</i>
   <i name="AEXX">      0.00000000</i>
   <i name="HFALPHA">      0.00000000</i>
   <i name="MCALPHA">      0.00000000</i>
   <i name="ALDAX">      1.00000000</i>
   <i name="AGGAX">      1.00000000</i>
   <i name="ALDAC">      1.00000000</i>
   <i name="AGGAC">      1.00000000</i>
   <i type="int" name="NKREDX">     1</i>
   <i type="int" name="NKREDY">     1</i>
   <i type="int" name="NKREDZ">     1</i>
   <i type="logical" name="SHIFTRED"> F  </i>
   <i type="logical" name="ODDONLY"> F  </i>
   <i type="logical" name="EVENONLY"> F  </i>
   <i type="int" name="LMAXFOCK">     0</i>
   <i type="int" name="NMAXFOCKAE">     0</i>
   <i type="logical" name="LFOCKAEDFT"> F  </i>
   <i name="HFSCREEN">      0.00000000</i>
   <i name="HFSCREENC">      0.00000000</i>
   <i type="int" name="NBANDSGWLOW">     0</i>
  </separator>
  <separator name="vdW DFT" >
   <i type="logical" name="LUSE_VDW"> F  </i>
   <i name="Zab_VDW">     -0.84910000</i>
   <i name="PARAM1">      0.12340000</i>
   <i name="PARAM2">      1.00000000</i>
   <i name="PARAM3">      0.00000000</i>
  </separator>
  <separator name="model GW" >
   <i type="int" name="MODEL_GW">     0</i>
   <i name="MODEL_EPS0">      9.73852770</i>
   <i name="MODEL_ALPHA">      1.00000000</i>
  </separator>
  <separator name="linear response parameters" >
   <i type="logical" name="LEPSILON"> F  </i>
   <i type="logical" name="LRPA"> F  </i>
   <i type="logical" name="LNABLA"> F  </i>
   <i type="logical" name="LVEL"> F  </i>
   <i type="int" name="KINTER">     0</i>
   <i name="CSHIFT">      0.10000000</i>
   <i name="OMEGAMAX">     -1.00000000</i>
   <i name="DEG_THRESHOLD">      0.00200000</i>
   <i name="RTIME">     -0.10000000</i>
   <i name="WPLASMAI">      0.00000000</i>
   <v name="DFIELD">      0.00000000      0.00000000      0.00000000</v>
   <v name="WPLASMA">      0.00000000      0.00000000      0.00000000      0.00000000      0.00000000      0.00000000      0.00000000      0.00000000      0.00000000</v>
  </separator>
  <separator name="orbital magnetization" >
   <i type="logical" name="NUCIND"> F  </i>
   <v name="MAGPOS">      0.00000000      0.00000000      0.00000000</v>
   <i type="logical" name="LNICSALL"> T  </i>
   <i type="logical" name="ORBITALMAG"> F  </i>
   <i type="logical" name="LMAGBLOCH"> F  </i>
   <i type="logical" name="LCHIMAG"> F  </i>
   <i type="logical" name="LGAUGE"> T  </i>
   <i type="int" name="MAGATOM">     0</i>
   <v name="MAGDIPOL">      0.00000000      0.00000000      0.00000000</v>
   <v name="AVECCONST">      0.00000000      0.00000000      0.00000000</v>
  </separator>
  <separator name="response functions" >
   <i type="logical" name="LADDER"> F  </i>
   <i type="logical" name="LRPAFORCE"> F  </i>
   <i type="logical" name="LFXC"> F  </i>
   <i type="logical" name="LHARTREE"> T  </i>
   <i type="int" name="IBSE">     0</i>
   <v type="int" name="KPOINT">    -1     0     0     0</v>
   <i type="logical" name="LTCTE"> F  </i>
   <i type="logical" name="LTETE"> F  </i>
   <i type="logical" name="LTRIPLET"> F  </i>
   <i type="logical" name="LFXCEPS"> F  </i>
   <i type="logical" name="LFXHEG"> F  </i>
   <i type="int" name="NATURALO">     2</i>
   <i type="logical" name="L2ORDER"> F  </i>
   <i type="logical" name="LMP2LT"> F  </i>
   <i type="logical" name="LUSEW"> F  </i>
   <i name="ENCUTGW">     -2.00000000</i>
   <i name="ENCUTGWSOFT">     -2.00000000</i>
   <i name="ENCUTLF">     -1.00000000</i>
   <i type="int" name="LMAXMP2">    -1</i>
   <i name="SCISSOR">      0.00000000</i>
   <i type="int" name="NOMEGA">     0</i>
   <i type="int" name="NOMEGAR">     0</i>
   <i type="int" name="NBANDSGW">    -1</i>
   <i type="int" name="NBANDSO">    -1</i>
   <i type="int" name="NBANDSV">    -1</i>
   <i type="int" name="NELM">   100</i>
   <i type="int" name="NELMHF">     1</i>
   <i type="int" name="DIM">     3</i>
   <i type="int" name="ANTIRES">     0</i>
   <i name="OMEGAMAX">    -30.00000000</i>
   <i name="OMEGAMIN">    -30.00000000</i>
   <i name="OMEGATL">   -200.00000000</i>
   <i type="int" name="OMEGAGRID">   140</i>
   <i name="CSHIFT">     -0.10000000</i>
   <i type="logical" name="SELFENERGY"> F  </i>
   <i type="logical" name="LSPECTRAL"> F  </i>
   <i type="logical" name="LSPECTRALGW"> F  </i>
   <i type="logical" name="LSINGLES"> F  </i>
   <i type="logical" name="LFERMIGW"> F  </i>
   <i type="logical" name="ODDONLYGW"> F  </i>
   <i type="logical" name="EVENONLYGW"> F  </i>
   <i type="int" name="NKREDLFX">     1</i>
   <i type="int" name="NKREDLFY">     1</i>
   <i type="int" name="NKREDLFZ">     1</i>
   <i type="int" name="MAXMEM">  2800</i>
   <i type="int" name="TELESCOPE">     0</i>
   <i type="int" name="TAUPAR">     1</i>
   <i type="int" name="OMEGAPAR">    -1</i>
   <i name="LAMBDA">      1.00000000</i>
  </separator>
  <separator name="External order field" >
   <i name="OFIELD_KAPPA">      0.00000000</i>
   <v name="OFIELD_K">      0.00000000      0.00000000      0.00000000</v>
   <i name="OFIELD_Q6_NEAR">      0.00000000</i>
   <i name="OFIELD_Q6_FAR">      0.00000000</i>
   <i name="OFIELD_A">      0.00000000</i>
  </separator>
  <separator name="solvation model" >
   <i type="logical" name="LSOL"> F  </i>
  </separator>
 </parameters>
 <atominfo>
  <atoms>      30 </atoms>
  <types>       5 </types>
  <array name="atoms" >
   <dimension dim="1">ion</dimension>
   <field type="string">element</field>
   <field type="int">atomtype</field>
   <set>
    <rc><c>Nb</c><c>   1</c></rc>
    <rc><c>Nb</c><c>   1</c></rc>
    <rc><c>Nb</c><c>   1</c></rc>
    <rc><c>Nb</c><c>   1</c></rc>
    <rc><c>Nb</c><c>   1</c></rc>
    <rc><c>Nb</c><c>   1</c></rc>
    <rc><c>Mo</c><c>   2</c></rc>
    <rc><c>Mo</c><c>   2</c></rc>
    <rc><c>Mo</c><c>   2</c></rc>
    <rc><c>Mo</c><c>   2</c></rc>
    <rc><c>Mo</c><c>   2</c></rc>
    <rc><c>Mo</c><c>   2</c></rc>
    <rc><c>Ta</c><c>   3</c></rc>
    <rc><c>Ta</c><c>   3</c></rc>
    <rc><c>Ta</c><c>   3</c></rc>
    <rc><c>Ta</c><c>   3</c></rc>
    <rc><c>Ta</c><c>   3</c></rc>
    <rc><c>Ta</c><c>   3</c></rc>
    <rc><c>Ti</c><c>   4</c></rc>
    <rc><c>Ti</c><c>   4</c></rc>
    <rc><c>Ti</c><c>   4</c></rc>
    <rc><c>Ti</c><c>   4</c></rc>
    <rc><c>Ti</c><c>   4</c></rc>
    <rc><c>Ti</c><c>   4</c></rc>
    <rc><c>V </c><c>   5</c></rc>
    <rc><c>V </c><c>   5</c></rc>
    <rc><c>V </c><c>   5</c></rc>
    <rc><c>V </c><c>   5</c></rc>
    <rc><c>V </c><c>   5</c></rc>
    <rc><c>V </c><c>   5</c></rc>
   </set>
  </array>
  <array name="atomtypes" >
   <dimension dim="1">type</dimension>
   <field type="int">atomspertype</field>
   <field type="string">element</field>
   <field>mass</field>
   <field>valence</field>
   <field type="string">pseudopotential</field>
   <set>
    <rc><c>   6</c><c>Nb</c><c>     92.91000000</c><c>     13.00000000</c><c>  PAW_PBE Nb_sv 25May2007               </c></rc>
    <rc><c>   6</c><c>Mo</c><c>     95.94000000</c><c>      6.00000000</c><c>  PAW_PBE Mo 08Apr2002                  </c></rc>
    <rc><c>   6</c><c>Ta</c><c>    180.94800000</c><c>      5.00000000</c><c>  PAW_PBE Ta 17Jan2003                  </c></rc>
    <rc><c>   6</c><c>Ti</c><c>     47.88000000</c><c>      4.00000000</c><c>  PAW_PBE Ti 08Apr2002                  </c></rc>
    <rc><c>   6</c><c>V </c><c>     50.94100000</c><c>      5.00000000</c><c>  PAW_PBE V 08Apr2002                   </c></rc>
   </set>
  </array>
 </atominfo>
 <structure name="initialpos" >
  <crystal>
   <varray name="basis" >
    <v>      -3.19000000      -3.19000000      -3.19000000 </v>
    <v>       1.59500000       1.59500000      -7.97500000 </v>
    <v>       7.97500000      -7.97500000      -1.59500000 </v>
   </varray>
   <i name="volume">    486.92638500 </i>
   <varray name="rec_basis" >
    <v>      -0.13584117      -0.12539185      -0.05224660 </v>
    <v>       0.04179728       0.06269592      -0.10449321 </v>
    <v>       0.06269592      -0.06269592       0.00000000 </v>
   </varray>
  </crystal>
  <varray name="positions" >
   <v>       0.96666667       0.93333333       0.40000000 </v>
   <v>       0.63333333       0.26666667       0.40000000 </v>
   <v>       0.50000000       0.00000000       0.00000000 </v>
   <v>       0.00000000       0.00000000       0.00000000 </v>
   <v>       0.10000000       0.20000000       0.80000000 </v>
   <v>       0.03333333       0.06666667       0.60000000 </v>
   <v>       0.90000000       0.80000000       0.20000000 </v>
   <v>       0.80000000       0.60000000       0.40000000 </v>
   <v>       0.73333333       0.46666667       0.20000000 </v>
   <v>       0.66666667       0.33333333       0.00000000 </v>
   <v>       0.36666667       0.73333333       0.60000000 </v>
   <v>       0.13333333       0.26666667       0.40000000 </v>
   <v>       0.83333333       0.66666667       0.00000000 </v>
   <v>       0.93333333       0.86666667       0.80000000 </v>
   <v>       0.56666667       0.13333333       0.20000000 </v>
   <v>       0.40000000       0.80000000       0.20000000 </v>
   <v>       0.43333333       0.86666667       0.80000000 </v>
   <v>       0.30000000       0.60000000       0.40000000 </v>
   <v>       0.86666667       0.73333333       0.60000000 </v>
   <v>       0.46666667       0.93333333       0.40000000 </v>
   <v>       0.16666667       0.33333333       0.00000000 </v>
   <v>       0.26666667       0.53333333       0.80000000 </v>
   <v>       0.20000000       0.40000000       0.60000000 </v>
   <v>       0.06666667       0.13333333       0.20000000 </v>
   <v>       0.76666667       0.53333333       0.80000000 </v>
   <v>       0.70000000       0.40000000       0.60000000 </v>
   <v>       0.60000000       0.20000000       0.80000000 </v>
   <v>       0.53333333       0.06666667       0.60000000 </v>
   <v>       0.33333333       0.66666667       0.00000000 </v>
   <v>       0.23333333       0.46666667       0.20000000 </v>
  </varray>
 </structure>
 <calculation>
  <scstep>
   <time name="dav">   29.51   29.55</time>
   <time name="total">   30.14   30.20</time>
   <energy>
    <i name="alphaZ">   1195.67725051 </i>
    <i name="ewald"> -11425.97941758 </i>
    <i name="hartreedc">  -3017.11857055 </i>
    <i name="XCdc">   -888.44052224 </i>
    <i name="pawpsdc">  19765.16798484 </i>
    <i name="pawaedc"> -18259.25004409 </i>
    <i name="eentropy">     -0.01079124 </i>
    <i name="bandstr">   -739.38381469 </i>
    <i name="atom">  13005.90793652 </i>
    <i name="e_fr_energy">   -363.42998851 </i>
    <i name="e_wo_entrp">   -363.41919727 </i>
    <i name="e_0_energy">   -363.42639143 </i>
   </energy>
  </scstep>
  <scstep>
   <time name="dav">   26.76   26.79</time>
   <time name="total">   27.39   27.42</time>
   <energy>
    <i name="e_fr_energy">   -406.61551123 </i>
    <i name="e_wo_entrp">   -406.60773593 </i>
    <i name="e_0_energy">   -406.61291946 </i>
   </energy>
  </scstep>
  <scstep>
   <time name="dav">   29.94   29.97</time>
   <time name="total">   30.56   30.59</time>
   <energy>
    <i name="e_fr_energy">   -351.43409056 </i>
    <i name="e_wo_entrp">   -351.42406879 </i>
    <i name="e_0_energy">   -351.43074997 </i>
   </energy>
  </scstep>
  <scstep>
   <time name="dav">   26.97   27.00</time>
   <time name="total">   27.60   27.62</time>
   <energy>
    <i name="e_fr_energy">   -331.46965712 </i>
    <i name="e_wo_entrp">   -331.46146708 </i>
    <i name="e_0_energy">   -331.46692711 </i>
   </energy>
  </scstep>
  <scstep>
   <time name="dav">   28.64   28.66</time>
   <time name="total">   29.28   29.31</time>
   <energy>
    <i name="e_fr_energy">   -323.53085701 </i>
    <i name="e_wo_entrp">   -323.53777105 </i>
    <i name="e_0_energy">   -323.53316169 </i>
   </energy>
  </scstep>
  <scstep>
   <time name="dav">   26.69   26.72</time>
   <time name="total">   27.32   27.35</time>
   <energy>
    <i name="e_fr_energy">   -323.93027826 </i>
    <i name="e_wo_entrp">   -323.92880631 </i>
    <i name="e_0_energy">   -323.92978761 </i>
   </energy>
  </scstep>
  <scstep>
   <time name="dav">   26.99   27.01</time>
   <time name="total">   27.62   27.65</time>
   <energy>
    <i name="e_fr_energy">   -321.85745980 </i>
    <i name="e_wo_entrp">   -321.84234325 </i>
    <i name="e_0_energy">   -321.85242095 </i>
   </energy>
  </scstep>
  <scstep>
   <time name="dav">   26.11   26.13</time>
   <time name="total">   26.74   26.77</time>
   <energy>
    <i name="e_fr_energy">   -320.65989267 </i>
    <i name="e_wo_entrp">   -320.65159549 </i>
    <i name="e_0_energy">   -320.65712694 </i>
   </energy>
  </scstep>
  <scstep>
   <time name="dav">   27.51   27.54</time>
   <time name="total">   28.14   28.16</time>
   <energy>
    <i name="e_fr_energy">   -321.83678830 </i>
    <i name="e_wo_entrp">   -321.82295784 </i>
    <i name="e_0_energy">   -321.83217814 </i>
   </energy>
  </scstep>
  <scstep>
   <time name="dav">   26.16   26.18</time>
   <time name="total">   26.78   26.81</time>
   <energy>
    <i name="e_fr_energy">   -320.26533046 </i>
    <i name="e_wo_entrp">   -320.26387371 </i>
    <i name="e_0_energy">   -320.26484488 </i>
   </energy>
  </scstep>
  <scstep>
   <time name="dav">   26.78   26.80</time>
   <time name="total">   27.41   27.44</time>
   <energy>
    <i name="e_fr_energy">   -318.94633436 </i>
    <i name="e_wo_entrp">   -318.93542923 </i>
    <i name="e_0_energy">   -318.94269932 </i>
   </energy>
  </scstep>
  <scstep>
   <time name="dav">   28.57   28.60</time>
   <time name="total">   29.20   29.22</time>
   <energy>
    <i name="e_fr_energy">   -318.81266028 </i>
    <i name="e_wo_entrp">   -318.80186055 </i>
    <i name="e_0_energy">   -318.80906037 </i>
   </energy>
  </scstep>
  <scstep>
   <time name="dav">   27.32   27.35</time>
   <time name="total">   27.95   27.98</time>
   <energy>
    <i name="e_fr_energy">   -318.75244031 </i>
    <i name="e_wo_entrp">   -318.74104866 </i>
    <i name="e_0_energy">   -318.74864309 </i>
   </energy>
  </scstep>
  <scstep>
   <time name="dav">   28.39   28.44</time>
   <time name="total">   29.03   29.10</time>
   <energy>
    <i name="e_fr_energy">   -318.71093638 </i>
    <i name="e_wo_entrp">   -318.70211541 </i>
    <i name="e_0_energy">   -318.70799605 </i>
   </energy>
  </scstep>
  <scstep>
   <time name="dav">   27.42   27.46</time>
   <time name="total">   28.05   28.09</time>
   <energy>
    <i name="e_fr_energy">   -318.64699442 </i>
    <i name="e_wo_entrp">   -318.63265455 </i>
    <i name="e_0_energy">   -318.64221447 </i>
   </energy>
  </scstep>
  <scstep>
   <time name="dav">   29.46   29.51</time>
   <time name="total">   30.09   30.14</time>
   <energy>
    <i name="e_fr_energy">   -318.63824605 </i>
    <i name="e_wo_entrp">   -318.62787181 </i>
    <i name="e_0_energy">   -318.63478797 </i>
   </energy>
  </scstep>
  <scstep>
   <time name="dav">   28.99   29.02</time>
   <time name="total">   29.62   29.66</time>
   <energy>
    <i name="e_fr_energy">   -318.62570917 </i>
    <i name="e_wo_entrp">   -318.61270476 </i>
    <i name="e_0_energy">   -318.62137437 </i>
   </energy>
  </scstep>
  <scstep>
   <time name="dav">   27.68   27.71</time>
   <time name="total">   28.31   28.34</time>
   <energy>
    <i name="e_fr_energy">   -318.61766310 </i>
    <i name="e_wo_entrp">   -318.60613728 </i>
    <i name="e_0_energy">   -318.61382116 </i>
   </energy>
  </scstep>
  <scstep>
   <time name="dav">   27.36   27.39</time>
   <time name="total">   27.99   28.01</time>
   <energy>
    <i name="e_fr_energy">   -318.61462869 </i>
    <i name="e_wo_entrp">   -318.60253575 </i>
    <i name="e_0_energy">   -318.61059771 </i>
   </energy>
  </scstep>
  <scstep>
   <time name="dav">   27.97   27.99</time>
   <time name="total">   28.60   28.63</time>
   <energy>
    <i name="e_fr_energy">   -318.61376565 </i>
    <i name="e_wo_entrp">   -318.60186936 </i>
    <i name="e_0_energy">   -318.60980022 </i>
   </energy>
  </scstep>
  <scstep>
   <time name="dav">   26.98   27.01</time>
   <time name="total">   27.61   27.64</time>
   <energy>
    <i name="e_fr_energy">   -318.61363184 </i>
    <i name="e_wo_entrp">   -318.60163745 </i>
    <i name="e_0_energy">   -318.60963371 </i>
   </energy>
  </scstep>
  <scstep>
   <time name="dav">   26.32   26.35</time>
   <time name="total">   26.95   26.97</time>
   <energy>
    <i name="e_fr_energy">   -318.61307778 </i>
    <i name="e_wo_entrp">   -318.60099447 </i>
    <i name="e_0_energy">   -318.60905001 </i>
   </energy>
  </scstep>
  <scstep>
   <time name="dav">   21.68   21.70</time>
   <time name="total">   21.71   21.74</time>
   <energy>
    <i name="alphaZ">   1195.67725051 </i>
    <i name="ewald"> -11425.97941758 </i>
    <i name="hartreedc">  -2978.88830970 </i>
    <i name="XCdc">   -888.72966967 </i>
    <i name="pawpsdc">  18650.86802599 </i>
    <i name="pawaedc"> -17141.19465644 </i>
    <i name="eentropy">     -0.01200544 </i>
    <i name="bandstr">   -736.26226852 </i>
    <i name="atom">  13005.90793652 </i>
    <i name="e_fr_energy">   -318.61311433 </i>
    <i name="e_wo_entrp">   -318.60110889 </i>
    <i name="e_0_energy">   -318.60911252 </i>
   </energy>
  </scstep>
  <structure>
   <crystal>
    <varray name="basis" >
     <v>      -3.19000000      -3.19000000      -3.19000000 </v>
     <v>       1.59500000       1.59500000      -7.97500000 </v>
     <v>       7.97500000      -7.97500000      -1.59500000 </v>
    </varray>
    <i name="volume">    486.92638500 </i>
    <varray name="rec_basis" >
     <v>      -0.13584117      -0.12539185      -0.05224660 </v>
     <v>       0.04179728       0.06269592      -0.10449321 </v>
     <v>       0.06269592      -0.06269592       0.00000000 </v>
    </varray>
   </crystal>
   <varray name="positions" >
    <v>       0.96666667       0.93333333       0.40000000 </v>
    <v>       0.63333333       0.26666667       0.40000000 </v>
    <v>       0.50000000       0.00000000       0.00000000 </v>
    <v>       0.00000000       0.00000000       0.00000000 </v>
    <v>       0.10000000       0.20000000       0.80000000 </v>
    <v>       0.03333333       0.06666667       0.60000000 </v>
    <v>       0.90000000       0.80000000       0.20000000 </v>
    <v>       0.80000000       0.60000000       0.40000000 </v>
    <v>       0.73333333       0.46666667       0.20000000 </v>
    <v>       0.66666667       0.33333333       0.00000000 </v>
    <v>       0.36666667       0.73333333       0.60000000 </v>
    <v>       0.13333333       0.26666667       0.40000000 </v>
    <v>       0.83333333       0.66666667       0.00000000 </v>
    <v>       0.93333333       0.86666667       0.80000000 </v>
    <v>       0.56666667       0.13333333       0.20000000 </v>
    <v>       0.40000000       0.80000000       0.20000000 </v>
    <v>       0.43333333       0.86666667       0.80000000 </v>
    <v>       0.30000000       0.60000000       0.40000000 </v>
    <v>       0.86666667       0.73333333       0.60000000 </v>
    <v>       0.46666667       0.93333333       0.40000000 </v>
    <v>       0.16666667       0.33333333       0.00000000 </v>
    <v>       0.26666667       0.53333333       0.80000000 </v>
    <v>       0.20000000       0.40000000       0.60000000 </v>
    <v>       0.06666667       0.13333333       0.20000000 </v>
    <v>       0.76666667       0.53333333       0.80000000 </v>
    <v>       0.70000000       0.40000000       0.60000000 </v>
    <v>       0.60000000       0.20000000       0.80000000 </v>
    <v>       0.53333333       0.06666667       0.60000000 </v>
    <v>       0.33333333       0.66666667       0.00000000 </v>
    <v>       0.23333333       0.46666667       0.20000000 </v>
   </varray>
  </structure>
  <varray name="forces" >
   <v>       0.04035894       0.44431511       0.24426110 </v>
   <v>       0.30590526      -0.12698566       0.00190325 </v>
   <v>      -0.12132212       0.34861457      -0.19741630 </v>
   <v>       0.24730304      -0.02536750      -0.01797977 </v>
   <v>      -0.04411453       0.65223445      -0.49048559 </v>
   <v>      -0.24039625       0.25825233      -0.33585564 </v>
   <v>       0.00411045      -0.53419846       0.16405034 </v>
   <v>      -0.55894330      -0.28289353       0.58576277 </v>
   <v>      -0.15080604       0.29724743       0.03684458 </v>
   <v>       0.17618318       0.47012210      -0.56350402 </v>
   <v>      -0.12923815      -0.36293051       0.25882135 </v>
   <v>       0.13792244       0.17709759      -0.61815625 </v>
   <v>       0.12757194      -0.46304027       0.43034508 </v>
   <v>       0.24696167       0.35379459      -0.08218738 </v>
   <v>      -0.27117617       0.45980679      -0.12580778 </v>
   <v>      -0.73223739      -0.12712402       0.77113811 </v>
   <v>      -0.82168462      -0.09452708       0.62446154 </v>
   <v>       0.32399157      -0.29544517      -0.24168965 </v>
   <v>       0.07321806       0.22593338       0.47165293 </v>
   <v>       0.54364482      -0.51467224       0.13607013 </v>
   <v>      -0.03023609      -0.17536510      -0.39591030 </v>
   <v>      -0.33870882      -0.02368954      -0.27583115 </v>
   <v>      -0.23533820      -0.06675507       0.51529043 </v>
   <v>       0.62188196      -0.14058056      -0.82655588 </v>
   <v>       0.07578671      -0.36442360       0.56343900 </v>
   <v>       0.53642872       0.14101770      -0.39340532 </v>
   <v>       0.01054870       0.23863309      -0.18478869 </v>
   <v>       0.18916063      -0.45576284      -0.45139828 </v>
   <v>      -0.23442288      -0.23953196       0.56247385 </v>
   <v>       0.24764651       0.22622398      -0.16554249 </v>
  </varray>
  <varray name="stress" >
   <v>     -47.72526773      -3.44363209       1.33217199 </v>
   <v>      -3.44363209     -50.55221044      -0.58326434 </v>
   <v>       1.33217202      -0.58326451     -49.03886129 </v>
  </varray>
  <energy>
   <i name="e_fr_energy">   -318.61311433 </i>
   <i name="e_wo_entrp">   -318.60911252 </i>
   <i name="e_0_energy">     -0.01200544 </i>
  </energy>
  <time name="totalsc">  668.87  674.31</time>
  <eigenvalues>
   <array>
    <dimension dim="1">band</dimension>
    <dimension dim="2">kpoint</dimension>
    <dimension dim="3">spin</dimension>
    <field>eigene</field>
    <field>occ</field>
    <set>
     <set comment="spin 1">
      <set comment="kpoint 1">
       <r>  -47.5571    1.0000 </r>
       <r>  -47.5367    1.0000 </r>
       <r>  -47.4934    1.0000 </r>
       <r>  -47.4477    1.0000 </r>
       <r>  -47.4171    1.0000 </r>
       <r>  -47.3220    1.0000 </r>
       <r>  -24.2656    1.0000 </r>
       <r>  -24.1165    1.0000 </r>
       <r>  -23.9671    1.0000 </r>
       <r>  -23.9271    1.0000 </r>
       <r>  -23.7125    1.0000 </r>
       <r>  -23.7042    1.0000 </r>
       <r>  -23.7010    1.0000 </r>
       <r>  -23.6532    1.0000 </r>
       <r>  -23.6385    1.0000 </r>
       <r>  -23.6193    1.0000 </r>
       <r>  -23.5958    1.0000 </r>
       <r>  -23.5511    1.0000 </r>
       <r>  -23.5130    1.0000 </r>
       <r>  -23.4940    1.0000 </r>
       <r>  -23.3624    1.0000 </r>
       <r>  -23.3431    1.0000 </r>
       <r>  -23.2004    1.0000 </r>
       <r>  -22.9826    1.0000 </r>
       <r>   -0.2894    1.0000 </r>
       <r>    0.9957    1.0000 </r>
       <r>    1.3524    1.0000 </r>
       <r>    2.1585    1.0000 </r>
       <r>    2.3050    1.0000 </r>
       <r>    2.3788    1.0000 </r>
       <r>    2.4904    1.0000 </r>
       <r>    2.6188    1.0000 </r>
       <r>    2.6612    1.0000 </r>
       <r>    2.7464    1.0000 </r>
       <r>    2.7962    1.0000 </r>
       <r>    2.8637    1.0000 </r>
       <r>    2.9229    1.0000 </r>
       <r>    2.9741    1.0000 </r>
       <r>    3.1002    1.0000 </r>
       <r>    3.1292    1.0000 </r>
       <r>    3.2195    1.0000 </r>
       <r>    3.3201    1.0000 </r>
       <r>    3.4249    1.0000 </r>
       <r>    3.4683    1.0000 </r>
       <r>    3.5367    1.0000 </r>
       <r>    3.5847    1.0000 </r>
       <r>    3.6453    1.0000 </r>
       <r>    3.6605    1.0000 </r>
       <r>    3.8110    1.0000 </r>
       <r>    3.8501    1.0000 </r>
       <r>    3.9413    1.0000 </r>
       <r>    3.9974    1.0000 </r>
       <r>    4.0736    1.0000 </r>
       <r>    4.1111    1.0000 </r>
       <r>    4.2463    1.0000 </r>
       <r>    4.3146    1.0000 </r>
       <r>    4.3965    1.0000 </r>
       <r>    4.4422    1.0000 </r>
       <r>    4.5827    1.0000 </r>
       <r>    4.6182    1.0000 </r>
       <r>    4.6985    1.0000 </r>
       <r>    4.7444    1.0000 </r>
       <r>    4.7513    1.0000 </r>
       <r>    4.8421    1.0000 </r>
       <r>    4.8473    1.0000 </r>
       <r>    4.9394    1.0000 </r>
       <r>    4.9541    1.0000 </r>
       <r>    5.0385    1.0000 </r>
       <r>    5.0558    1.0000 </r>
       <r>    5.1065    1.0000 </r>
       <r>    5.1633    1.0000 </r>
       <r>    5.1907    1.0000 </r>
       <r>    5.2512    1.0000 </r>
       <r>    5.2971    1.0000 </r>
       <r>    5.3083    1.0000 </r>
       <r>    5.3242    1.0000 </r>
       <r>    5.3447    1.0000 </r>
       <r>    5.4621    1.0000 </r>
       <r>    5.5266    1.0000 </r>
       <r>    5.6143    1.0000 </r>
       <r>    5.7833    1.0000 </r>
       <r>    5.8295    1.0000 </r>
       <r>    5.8777    1.0002 </r>
       <r>    5.9143    1.0005 </r>
       <r>    5.9621    1.0014 </r>
       <r>    6.0237    1.0048 </r>
       <r>    6.0796    1.0118 </r>
       <r>    6.1096    1.0176 </r>
       <r>    6.1255    1.0211 </r>
       <r>    6.1406    1.0246 </r>
       <r>    6.1675    1.0305 </r>
       <r>    6.1984    1.0350 </r>
       <r>    6.2259    1.0342 </r>
       <r>    6.2871    0.9983 </r>
       <r>    6.4464    0.5320 </r>
       <r>    6.4726    0.4218 </r>
       <r>    6.5618    0.1092 </r>
       <r>    6.5703    0.0885 </r>
       <r>    6.6163    0.0071 </r>
       <r>    6.7058   -0.0353 </r>
       <r>    6.7645   -0.0253 </r>
       <r>    6.8031   -0.0166 </r>
       <r>    6.8732   -0.0058 </r>
       <r>    6.8859   -0.0046 </r>
       <r>    6.8993   -0.0036 </r>
       <r>    7.0057   -0.0003 </r>
       <r>    7.2437   -0.0000 </r>
       <r>    7.3926   -0.0000 </r>
       <r>    7.4249   -0.0000 </r>
       <r>    7.5099   -0.0000 </r>
       <r>    7.8896   -0.0000 </r>
       <r>    8.0498   -0.0000 </r>
       <r>    8.1910   -0.0000 </r>
       <r>    8.2825   -0.0000 </r>
       <r>    8.3262   -0.0000 </r>
       <r>    8.3444   -0.0000 </r>
       <r>    8.3644   -0.0000 </r>
       <r>    8.3950   -0.0000 </r>
       <r>    8.4865   -0.0000 </r>
       <r>    8.5258   -0.0000 </r>
      </set>
      <set comment="kpoint 2">
       <r>  -47.5544    1.0000 </r>
       <r>  -47.5315    1.0000 </r>
       <r>  -47.4911    1.0000 </r>
       <r>  -47.4468    1.0000 </r>
       <r>  -47.4166    1.0000 </r>
       <r>  -47.3333    1.0000 </r>
       <r>  -24.1736    1.0000 </r>
       <r>  -24.1045    1.0000 </r>
       <r>  -23.9602    1.0000 </r>
       <r>  -23.9214    1.0000 </r>
       <r>  -23.7105    1.0000 </r>
       <r>  -23.7062    1.0000 </r>
       <r>  -23.6993    1.0000 </r>
       <r>  -23.6549    1.0000 </r>
       <r>  -23.6376    1.0000 </r>
       <r>  -23.6237    1.0000 </r>
       <r>  -23.5981    1.0000 </r>
       <r>  -23.5541    1.0000 </r>
       <r>  -23.5226    1.0000 </r>
       <r>  -23.4965    1.0000 </r>
       <r>  -23.3678    1.0000 </r>
       <r>  -23.3486    1.0000 </r>
       <r>  -23.2024    1.0000 </r>
       <r>  -23.1044    1.0000 </r>
       <r>    0.0194    1.0000 </r>
       <r>    1.2683    1.0000 </r>
       <r>    1.6135    1.0000 </r>
       <r>    2.1961    1.0000 </r>
       <r>    2.5172    1.0000 </r>
       <r>    2.6154    1.0000 </r>
       <r>    2.6603    1.0000 </r>
       <r>    2.7868    1.0000 </r>
       <r>    2.8137    1.0000 </r>
       <r>    2.8576    1.0000 </r>
       <r>    2.9894    1.0000 </r>
       <r>    3.0591    1.0000 </r>
       <r>    3.1081    1.0000 </r>
       <r>    3.2028    1.0000 </r>
       <r>    3.2381    1.0000 </r>
       <r>    3.2994    1.0000 </r>
       <r>    3.3462    1.0000 </r>
       <r>    3.4004    1.0000 </r>
       <r>    3.4588    1.0000 </r>
       <r>    3.5028    1.0000 </r>
       <r>    3.6304    1.0000 </r>
       <r>    3.6707    1.0000 </r>
       <r>    3.7362    1.0000 </r>
       <r>    3.8341    1.0000 </r>
       <r>    3.8865    1.0000 </r>
       <r>    3.8958    1.0000 </r>
       <r>    4.0169    1.0000 </r>
       <r>    4.0931    1.0000 </r>
       <r>    4.1238    1.0000 </r>
       <r>    4.2122    1.0000 </r>
       <r>    4.2679    1.0000 </r>
       <r>    4.3447    1.0000 </r>
       <r>    4.4185    1.0000 </r>
       <r>    4.5002    1.0000 </r>
       <r>    4.6185    1.0000 </r>
       <r>    4.6734    1.0000 </r>
       <r>    4.7338    1.0000 </r>
       <r>    4.8648    1.0000 </r>
       <r>    4.8825    1.0000 </r>
       <r>    4.9529    1.0000 </r>
       <r>    4.9852    1.0000 </r>
       <r>    5.0192    1.0000 </r>
       <r>    5.0679    1.0000 </r>
       <r>    5.1290    1.0000 </r>
       <r>    5.1465    1.0000 </r>
       <r>    5.1575    1.0000 </r>
       <r>    5.2284    1.0000 </r>
       <r>    5.2573    1.0000 </r>
       <r>    5.3198    1.0000 </r>
       <r>    5.3375    1.0000 </r>
       <r>    5.4181    1.0000 </r>
       <r>    5.4496    1.0000 </r>
       <r>    5.4680    1.0000 </r>
       <r>    5.5008    1.0000 </r>
       <r>    5.5445    1.0000 </r>
       <r>    5.5870    1.0000 </r>
       <r>    5.5990    1.0000 </r>
       <r>    5.6962    1.0000 </r>
       <r>    5.7486    1.0000 </r>
       <r>    5.8104    1.0000 </r>
       <r>    5.8614    1.0001 </r>
       <r>    5.9102    1.0004 </r>
       <r>    5.9386    1.0008 </r>
       <r>    6.0285    1.0052 </r>
       <r>    6.1195    1.0198 </r>
       <r>    6.1357    1.0235 </r>
       <r>    6.1734    1.0317 </r>
       <r>    6.2094    1.0355 </r>
       <r>    6.2372    1.0318 </r>
       <r>    6.2744    1.0111 </r>
       <r>    6.3648    0.8392 </r>
       <r>    6.3822    0.7831 </r>
       <r>    6.4398    0.5601 </r>
       <r>    6.4690    0.4367 </r>
       <r>    6.5352    0.1858 </r>
       <r>    6.5773    0.0727 </r>
       <r>    6.6025    0.0262 </r>
       <r>    6.6527   -0.0244 </r>
       <r>    6.7363   -0.0314 </r>
       <r>    6.7644   -0.0253 </r>
       <r>    6.7966   -0.0180 </r>
       <r>    6.8440   -0.0094 </r>
       <r>    6.8607   -0.0072 </r>
       <r>    7.0683   -0.0001 </r>
       <r>    7.1695   -0.0000 </r>
       <r>    7.2699   -0.0000 </r>
       <r>    7.5775   -0.0000 </r>
       <r>    7.6049   -0.0000 </r>
       <r>    7.6558   -0.0000 </r>
       <r>    7.7028   -0.0000 </r>
       <r>    7.8013   -0.0000 </r>
       <r>    7.9594   -0.0000 </r>
       <r>    8.0119   -0.0000 </r>
       <r>    8.0686   -0.0000 </r>
       <r>    8.0862   -0.0000 </r>
       <r>    8.1229   -0.0000 </r>
      </set>
      <set comment="kpoint 3">
       <r>  -47.5515    1.0000 </r>
       <r>  -47.5221    1.0000 </r>
       <r>  -47.4849    1.0000 </r>
       <r>  -47.4439    1.0000 </r>
       <r>  -47.4147    1.0000 </r>
       <r>  -47.3557    1.0000 </r>
       <r>  -24.1272    1.0000 </r>
       <r>  -23.9830    1.0000 </r>
       <r>  -23.9349    1.0000 </r>
       <r>  -23.8170    1.0000 </r>
       <r>  -23.7171    1.0000 </r>
       <r>  -23.7088    1.0000 </r>
       <r>  -23.6875    1.0000 </r>
       <r>  -23.6561    1.0000 </r>
       <r>  -23.6358    1.0000 </r>
       <r>  -23.6258    1.0000 </r>
       <r>  -23.6023    1.0000 </r>
       <r>  -23.5598    1.0000 </r>
       <r>  -23.5438    1.0000 </r>
       <r>  -23.5013    1.0000 </r>
       <r>  -23.4408    1.0000 </r>
       <r>  -23.3700    1.0000 </r>
       <r>  -23.3402    1.0000 </r>
       <r>  -23.1972    1.0000 </r>
       <r>    0.8488    1.0000 </r>
       <r>    1.7880    1.0000 </r>
       <r>    2.1180    1.0000 </r>
       <r>    2.3343    1.0000 </r>
       <r>    2.4138    1.0000 </r>
       <r>    2.7821    1.0000 </r>
       <r>    2.8370    1.0000 </r>
       <r>    3.0144    1.0000 </r>
       <r>    3.1192    1.0000 </r>
       <r>    3.2018    1.0000 </r>
       <r>    3.2555    1.0000 </r>
       <r>    3.2975    1.0000 </r>
       <r>    3.3736    1.0000 </r>
       <r>    3.4012    1.0000 </r>
       <r>    3.4936    1.0000 </r>
       <r>    3.5533    1.0000 </r>
       <r>    3.6213    1.0000 </r>
       <r>    3.6588    1.0000 </r>
       <r>    3.6740    1.0000 </r>
       <r>    3.7618    1.0000 </r>
       <r>    3.8674    1.0000 </r>
       <r>    3.8717    1.0000 </r>
       <r>    3.9395    1.0000 </r>
       <r>    3.9698    1.0000 </r>
       <r>    4.0728    1.0000 </r>
       <r>    4.1019    1.0000 </r>
       <r>    4.2335    1.0000 </r>
       <r>    4.2860    1.0000 </r>
       <r>    4.3452    1.0000 </r>
       <r>    4.4274    1.0000 </r>
       <r>    4.4912    1.0000 </r>
       <r>    4.5553    1.0000 </r>
       <r>    4.6270    1.0000 </r>
       <r>    4.6735    1.0000 </r>
       <r>    4.7025    1.0000 </r>
       <r>    4.7622    1.0000 </r>
       <r>    4.7944    1.0000 </r>
       <r>    4.8378    1.0000 </r>
       <r>    4.8955    1.0000 </r>
       <r>    4.9255    1.0000 </r>
       <r>    4.9585    1.0000 </r>
       <r>    5.0416    1.0000 </r>
       <r>    5.0651    1.0000 </r>
       <r>    5.0943    1.0000 </r>
       <r>    5.1336    1.0000 </r>
       <r>    5.1935    1.0000 </r>
       <r>    5.2452    1.0000 </r>
       <r>    5.2956    1.0000 </r>
       <r>    5.3332    1.0000 </r>
       <r>    5.3774    1.0000 </r>
       <r>    5.4238    1.0000 </r>
       <r>    5.4811    1.0000 </r>
       <r>    5.5355    1.0000 </r>
       <r>    5.5610    1.0000 </r>
       <r>    5.5734    1.0000 </r>
       <r>    5.6179    1.0000 </r>
       <r>    5.7099    1.0000 </r>
       <r>    5.7569    1.0000 </r>
       <r>    5.7906    1.0000 </r>
       <r>    5.8317    1.0000 </r>
       <r>    5.8822    1.0002 </r>
       <r>    5.9279    1.0006 </r>
       <r>    5.9853    1.0023 </r>
       <r>    6.0217    1.0046 </r>
       <r>    6.0621    1.0091 </r>
       <r>    6.0884    1.0134 </r>
       <r>    6.1182    1.0195 </r>
       <r>    6.1538    1.0276 </r>
       <r>    6.1881    1.0340 </r>
       <r>    6.2163    1.0352 </r>
       <r>    6.2225    1.0347 </r>
       <r>    6.3078    0.9703 </r>
       <r>    6.3487    0.8843 </r>
       <r>    6.3808    0.7878 </r>
       <r>    6.4242    0.6246 </r>
       <r>    6.4300    0.6010 </r>
       <r>    6.4759    0.4080 </r>
       <r>    6.5221    0.2294 </r>
       <r>    6.5319    0.1966 </r>
       <r>    6.6152    0.0085 </r>
       <r>    6.6189    0.0039 </r>
       <r>    6.6924   -0.0353 </r>
       <r>    6.7456   -0.0295 </r>
       <r>    6.7724   -0.0234 </r>
       <r>    6.7992   -0.0174 </r>
       <r>    6.8671   -0.0064 </r>
       <r>    6.9052   -0.0032 </r>
       <r>    6.9507   -0.0012 </r>
       <r>    7.2318   -0.0000 </r>
       <r>    7.3522   -0.0000 </r>
       <r>    7.3744   -0.0000 </r>
       <r>    7.5023   -0.0000 </r>
       <r>    7.5863   -0.0000 </r>
       <r>    7.6063   -0.0000 </r>
       <r>    7.7230   -0.0000 </r>
       <r>    7.8290   -0.0000 </r>
      </set>
      <set comment="kpoint 4">
       <r>  -47.5570    1.0000 </r>
       <r>  -47.5366    1.0000 </r>
       <r>  -47.4934    1.0000 </r>
       <r>  -47.4480    1.0000 </r>
       <r>  -47.4172    1.0000 </r>
       <r>  -47.3220    1.0000 </r>
       <r>  -24.2656    1.0000 </r>
       <r>  -24.1154    1.0000 </r>
       <r>  -23.9638    1.0000 </r>
       <r>  -23.9260    1.0000 </r>
       <r>  -23.7126    1.0000 </r>
       <r>  -23.7043    1.0000 </r>
       <r>  -23.7010    1.0000 </r>
       <r>  -23.6533    1.0000 </r>
       <r>  -23.6385    1.0000 </r>
       <r>  -23.6192    1.0000 </r>
       <r>  -23.5957    1.0000 </r>
       <r>  -23.5511    1.0000 </r>
       <r>  -23.5131    1.0000 </r>
       <r>  -23.4940    1.0000 </r>
       <r>  -23.3641    1.0000 </r>
       <r>  -23.3473    1.0000 </r>
       <r>  -23.2007    1.0000 </r>
       <r>  -22.9826    1.0000 </r>
       <r>   -0.1595    1.0000 </r>
       <r>    1.0600    1.0000 </r>
       <r>    1.4722    1.0000 </r>
       <r>    1.6905    1.0000 </r>
       <r>    2.2680    1.0000 </r>
       <r>    2.4403    1.0000 </r>
       <r>    2.5161    1.0000 </r>
       <r>    2.6412    1.0000 </r>
       <r>    2.6529    1.0000 </r>
       <r>    2.7399    1.0000 </r>
       <r>    2.8312    1.0000 </r>
       <r>    2.8912    1.0000 </r>
       <r>    2.9365    1.0000 </r>
       <r>    2.9859    1.0000 </r>
       <r>    3.0537    1.0000 </r>
       <r>    3.0885    1.0000 </r>
       <r>    3.2364    1.0000 </r>
       <r>    3.2745    1.0000 </r>
       <r>    3.3900    1.0000 </r>
       <r>    3.4649    1.0000 </r>
       <r>    3.5547    1.0000 </r>
       <r>    3.6378    1.0000 </r>
       <r>    3.6566    1.0000 </r>
       <r>    3.7653    1.0000 </r>
       <r>    3.7962    1.0000 </r>
       <r>    3.8802    1.0000 </r>
       <r>    3.9506    1.0000 </r>
       <r>    4.0224    1.0000 </r>
       <r>    4.0489    1.0000 </r>
       <r>    4.1032    1.0000 </r>
       <r>    4.1778    1.0000 </r>
       <r>    4.2588    1.0000 </r>
       <r>    4.3566    1.0000 </r>
       <r>    4.5207    1.0000 </r>
       <r>    4.6033    1.0000 </r>
       <r>    4.6659    1.0000 </r>
       <r>    4.7070    1.0000 </r>
       <r>    4.8123    1.0000 </r>
       <r>    4.8464    1.0000 </r>
       <r>    4.8954    1.0000 </r>
       <r>    4.9420    1.0000 </r>
       <r>    4.9739    1.0000 </r>
       <r>    5.0298    1.0000 </r>
       <r>    5.0834    1.0000 </r>
       <r>    5.1036    1.0000 </r>
       <r>    5.1346    1.0000 </r>
       <r>    5.1872    1.0000 </r>
       <r>    5.2170    1.0000 </r>
       <r>    5.2549    1.0000 </r>
       <r>    5.3149    1.0000 </r>
       <r>    5.3568    1.0000 </r>
       <r>    5.3837    1.0000 </r>
       <r>    5.4321    1.0000 </r>
       <r>    5.4527    1.0000 </r>
       <r>    5.5642    1.0000 </r>
       <r>    5.5967    1.0000 </r>
       <r>    5.7914    1.0000 </r>
       <r>    5.8116    1.0000 </r>
       <r>    5.8836    1.0002 </r>
       <r>    5.9130    1.0004 </r>
       <r>    5.9495    1.0010 </r>
       <r>    5.9661    1.0015 </r>
       <r>    5.9997    1.0030 </r>
       <r>    6.0503    1.0075 </r>
       <r>    6.0897    1.0136 </r>
       <r>    6.1077    1.0172 </r>
       <r>    6.1442    1.0254 </r>
       <r>    6.1839    1.0334 </r>
       <r>    6.2214    1.0348 </r>
       <r>    6.2579    1.0230 </r>
       <r>    6.3116    0.9641 </r>
       <r>    6.3209    0.9473 </r>
       <r>    6.3881    0.7629 </r>
       <r>    6.4515    0.5108 </r>
       <r>    6.5035    0.2975 </r>
       <r>    6.7528   -0.0279 </r>
       <r>    6.8077   -0.0157 </r>
       <r>    6.8318   -0.0112 </r>
       <r>    6.8960   -0.0038 </r>
       <r>    6.9729   -0.0008 </r>
       <r>    7.0574   -0.0001 </r>
       <r>    7.0872   -0.0000 </r>
       <r>    7.2187   -0.0000 </r>
       <r>    7.4052   -0.0000 </r>
       <r>    7.4333   -0.0000 </r>
       <r>    7.5120   -0.0000 </r>
       <r>    7.6365   -0.0000 </r>
       <r>    7.6955   -0.0000 </r>
       <r>    7.8231   -0.0000 </r>
       <r>    8.0436   -0.0000 </r>
       <r>    8.1182   -0.0000 </r>
       <r>    8.2455   -0.0000 </r>
       <r>    8.2713   -0.0000 </r>
       <r>    8.3271   -0.0000 </r>
       <r>    8.3657   -0.0000 </r>
       <r>    8.4087   -0.0000 </r>
      </set>
      <set comment="kpoint 5">
       <r>  -47.5545    1.0000 </r>
       <r>  -47.5316    1.0000 </r>
       <r>  -47.4911    1.0000 </r>
       <r>  -47.4466    1.0000 </r>
       <r>  -47.4165    1.0000 </r>
       <r>  -47.3333    1.0000 </r>
       <r>  -24.1737    1.0000 </r>
       <r>  -24.1054    1.0000 </r>
       <r>  -23.9638    1.0000 </r>
       <r>  -23.9220    1.0000 </r>
       <r>  -23.7105    1.0000 </r>
       <r>  -23.7062    1.0000 </r>
       <r>  -23.6992    1.0000 </r>
       <r>  -23.6549    1.0000 </r>
       <r>  -23.6375    1.0000 </r>
       <r>  -23.6237    1.0000 </r>
       <r>  -23.5981    1.0000 </r>
       <r>  -23.5541    1.0000 </r>
       <r>  -23.5226    1.0000 </r>
       <r>  -23.4964    1.0000 </r>
       <r>  -23.3665    1.0000 </r>
       <r>  -23.3441    1.0000 </r>
       <r>  -23.2021    1.0000 </r>
       <r>  -23.1044    1.0000 </r>
       <r>    0.0241    1.0000 </r>
       <r>    1.2292    1.0000 </r>
       <r>    1.6420    1.0000 </r>
       <r>    2.1738    1.0000 </r>
       <r>    2.4695    1.0000 </r>
       <r>    2.6027    1.0000 </r>
       <r>    2.6162    1.0000 </r>
       <r>    2.7142    1.0000 </r>
       <r>    2.7657    1.0000 </r>
       <r>    2.8509    1.0000 </r>
       <r>    2.9101    1.0000 </r>
       <r>    3.0091    1.0000 </r>
       <r>    3.1051    1.0000 </r>
       <r>    3.1623    1.0000 </r>
       <r>    3.2122    1.0000 </r>
       <r>    3.2654    1.0000 </r>
       <r>    3.3122    1.0000 </r>
       <r>    3.3273    1.0000 </r>
       <r>    3.5324    1.0000 </r>
       <r>    3.5715    1.0000 </r>
       <r>    3.6257    1.0000 </r>
       <r>    3.6983    1.0000 </r>
       <r>    3.7569    1.0000 </r>
       <r>    3.8300    1.0000 </r>
       <r>    3.9362    1.0000 </r>
       <r>    3.9875    1.0000 </r>
       <r>    4.0138    1.0000 </r>
       <r>    4.1050    1.0000 </r>
       <r>    4.1843    1.0000 </r>
       <r>    4.2472    1.0000 </r>
       <r>    4.3085    1.0000 </r>
       <r>    4.3641    1.0000 </r>
       <r>    4.4708    1.0000 </r>
       <r>    4.5527    1.0000 </r>
       <r>    4.6267    1.0000 </r>
       <r>    4.7056    1.0000 </r>
       <r>    4.7584    1.0000 </r>
       <r>    4.7790    1.0000 </r>
       <r>    4.8681    1.0000 </r>
       <r>    4.8864    1.0000 </r>
       <r>    4.9224    1.0000 </r>
       <r>    5.0097    1.0000 </r>
       <r>    5.0407    1.0000 </r>
       <r>    5.0786    1.0000 </r>
       <r>    5.1205    1.0000 </r>
       <r>    5.1438    1.0000 </r>
       <r>    5.1784    1.0000 </r>
       <r>    5.1984    1.0000 </r>
       <r>    5.2254    1.0000 </r>
       <r>    5.2818    1.0000 </r>
       <r>    5.3119    1.0000 </r>
       <r>    5.3786    1.0000 </r>
       <r>    5.4574    1.0000 </r>
       <r>    5.4810    1.0000 </r>
       <r>    5.5578    1.0000 </r>
       <r>    5.6269    1.0000 </r>
       <r>    5.6799    1.0000 </r>
       <r>    5.7397    1.0000 </r>
       <r>    5.8082    1.0000 </r>
       <r>    5.8250    1.0000 </r>
       <r>    5.8730    1.0002 </r>
       <r>    5.9385    1.0008 </r>
       <r>    5.9852    1.0023 </r>
       <r>    6.0585    1.0086 </r>
       <r>    6.0782    1.0116 </r>
       <r>    6.1232    1.0206 </r>
       <r>    6.1534    1.0275 </r>
       <r>    6.1836    1.0334 </r>
       <r>    6.2194    1.0350 </r>
       <r>    6.2429    1.0300 </r>
       <r>    6.3372    0.9126 </r>
       <r>    6.3840    0.7769 </r>
       <r>    6.4372    0.5709 </r>
       <r>    6.5112    0.2685 </r>
       <r>    6.5682    0.0934 </r>
       <r>    6.6152    0.0084 </r>
       <r>    6.6592   -0.0276 </r>
       <r>    6.7167   -0.0344 </r>
       <r>    6.7723   -0.0235 </r>
       <r>    6.8130   -0.0146 </r>
       <r>    6.8384   -0.0102 </r>
       <r>    6.9011   -0.0035 </r>
       <r>    6.9587   -0.0010 </r>
       <r>    7.0107   -0.0003 </r>
       <r>    7.0977   -0.0000 </r>
       <r>    7.1338   -0.0000 </r>
       <r>    7.2129   -0.0000 </r>
       <r>    7.5743   -0.0000 </r>
       <r>    7.8974   -0.0000 </r>
       <r>    8.0014   -0.0000 </r>
       <r>    8.0748   -0.0000 </r>
       <r>    8.1079   -0.0000 </r>
       <r>    8.2577   -0.0000 </r>
       <r>    8.3226   -0.0000 </r>
       <r>    8.3597   -0.0000 </r>
       <r>    8.4649   -0.0000 </r>
      </set>
      <set comment="kpoint 6">
       <r>  -47.5517    1.0000 </r>
       <r>  -47.5223    1.0000 </r>
       <r>  -47.4849    1.0000 </r>
       <r>  -47.4435    1.0000 </r>
       <r>  -47.4146    1.0000 </r>
       <r>  -47.3557    1.0000 </r>
       <r>  -24.1286    1.0000 </r>
       <r>  -23.9861    1.0000 </r>
       <r>  -23.9393    1.0000 </r>
       <r>  -23.8170    1.0000 </r>
       <r>  -23.7171    1.0000 </r>
       <r>  -23.7088    1.0000 </r>
       <r>  -23.6874    1.0000 </r>
       <r>  -23.6561    1.0000 </r>
       <r>  -23.6358    1.0000 </r>
       <r>  -23.6257    1.0000 </r>
       <r>  -23.6024    1.0000 </r>
       <r>  -23.5598    1.0000 </r>
       <r>  -23.5437    1.0000 </r>
       <r>  -23.5013    1.0000 </r>
       <r>  -23.4408    1.0000 </r>
       <r>  -23.3631    1.0000 </r>
       <r>  -23.3375    1.0000 </r>
       <r>  -23.1967    1.0000 </r>
       <r>    0.7539    1.0000 </r>
       <r>    1.7287    1.0000 </r>
       <r>    2.0801    1.0000 </r>
       <r>    2.2817    1.0000 </r>
       <r>    2.4159    1.0000 </r>
       <r>    2.5512    1.0000 </r>
       <r>    2.8600    1.0000 </r>
       <r>    3.0575    1.0000 </r>
       <r>    3.1495    1.0000 </r>
       <r>    3.2200    1.0000 </r>
       <r>    3.2985    1.0000 </r>
       <r>    3.3206    1.0000 </r>
       <r>    3.3979    1.0000 </r>
       <r>    3.4581    1.0000 </r>
       <r>    3.4668    1.0000 </r>
       <r>    3.5728    1.0000 </r>
       <r>    3.6413    1.0000 </r>
       <r>    3.6592    1.0000 </r>
       <r>    3.7460    1.0000 </r>
       <r>    3.7830    1.0000 </r>
       <r>    3.8203    1.0000 </r>
       <r>    3.8606    1.0000 </r>
       <r>    3.9341    1.0000 </r>
       <r>    4.0094    1.0000 </r>
       <r>    4.0717    1.0000 </r>
       <r>    4.1428    1.0000 </r>
       <r>    4.1909    1.0000 </r>
       <r>    4.2641    1.0000 </r>
       <r>    4.3192    1.0000 </r>
       <r>    4.3499    1.0000 </r>
       <r>    4.4154    1.0000 </r>
       <r>    4.4688    1.0000 </r>
       <r>    4.5229    1.0000 </r>
       <r>    4.6058    1.0000 </r>
       <r>    4.6747    1.0000 </r>
       <r>    4.7937    1.0000 </r>
       <r>    4.8206    1.0000 </r>
       <r>    4.8399    1.0000 </r>
       <r>    4.9039    1.0000 </r>
       <r>    4.9554    1.0000 </r>
       <r>    4.9918    1.0000 </r>
       <r>    5.0461    1.0000 </r>
       <r>    5.0749    1.0000 </r>
       <r>    5.1263    1.0000 </r>
       <r>    5.1595    1.0000 </r>
       <r>    5.2073    1.0000 </r>
       <r>    5.2590    1.0000 </r>
       <r>    5.2713    1.0000 </r>
       <r>    5.3116    1.0000 </r>
       <r>    5.3704    1.0000 </r>
       <r>    5.4045    1.0000 </r>
       <r>    5.4481    1.0000 </r>
       <r>    5.4731    1.0000 </r>
       <r>    5.5702    1.0000 </r>
       <r>    5.6089    1.0000 </r>
       <r>    5.6745    1.0000 </r>
       <r>    5.6950    1.0000 </r>
       <r>    5.7582    1.0000 </r>
       <r>    5.8045    1.0000 </r>
       <r>    5.8288    1.0000 </r>
       <r>    5.8498    1.0001 </r>
       <r>    5.8751    1.0002 </r>
       <r>    5.9558    1.0012 </r>
       <r>    5.9668    1.0015 </r>
       <r>    6.0164    1.0042 </r>
       <r>    6.0544    1.0080 </r>
       <r>    6.0809    1.0120 </r>
       <r>    6.1217    1.0203 </r>
       <r>    6.1422    1.0250 </r>
       <r>    6.1832    1.0333 </r>
       <r>    6.2099    1.0355 </r>
       <r>    6.2381    1.0315 </r>
       <r>    6.2831    1.0027 </r>
       <r>    6.3133    0.9611 </r>
       <r>    6.3354    0.9169 </r>
       <r>    6.3695    0.8245 </r>
       <r>    6.4099    0.6817 </r>
       <r>    6.4700    0.4324 </r>
       <r>    6.5115    0.2674 </r>
       <r>    6.5494    0.1429 </r>
       <r>    6.5961    0.0366 </r>
       <r>    6.6158    0.0077 </r>
       <r>    6.7378   -0.0311 </r>
       <r>    6.8430   -0.0095 </r>
       <r>    6.8881   -0.0044 </r>
       <r>    6.9733   -0.0007 </r>
       <r>    7.0453   -0.0001 </r>
       <r>    7.3861   -0.0000 </r>
       <r>    7.5053   -0.0000 </r>
       <r>    7.5688   -0.0000 </r>
       <r>    7.6483   -0.0000 </r>
       <r>    7.7630   -0.0000 </r>
       <r>    7.8264   -0.0000 </r>
       <r>    7.8865   -0.0000 </r>
       <r>    7.9502   -0.0000 </r>
       <r>    7.9951   -0.0000 </r>
      </set>
      <set comment="kpoint 7">
       <r>  -47.5515    1.0000 </r>
       <r>  -47.5221    1.0000 </r>
       <r>  -47.4849    1.0000 </r>
       <r>  -47.4439    1.0000 </r>
       <r>  -47.4147    1.0000 </r>
       <r>  -47.3557    1.0000 </r>
       <r>  -24.1272    1.0000 </r>
       <r>  -23.9830    1.0000 </r>
       <r>  -23.9348    1.0000 </r>
       <r>  -23.8171    1.0000 </r>
       <r>  -23.7172    1.0000 </r>
       <r>  -23.7088    1.0000 </r>
       <r>  -23.6875    1.0000 </r>
       <r>  -23.6561    1.0000 </r>
       <r>  -23.6357    1.0000 </r>
       <r>  -23.6258    1.0000 </r>
       <r>  -23.6023    1.0000 </r>
       <r>  -23.5598    1.0000 </r>
       <r>  -23.5438    1.0000 </r>
       <r>  -23.5013    1.0000 </r>
       <r>  -23.4408    1.0000 </r>
       <r>  -23.3701    1.0000 </r>
       <r>  -23.3403    1.0000 </r>
       <r>  -23.1972    1.0000 </r>
       <r>    1.1112    1.0000 </r>
       <r>    1.7703    1.0000 </r>
       <r>    1.8945    1.0000 </r>
       <r>    2.1835    1.0000 </r>
       <r>    2.4607    1.0000 </r>
       <r>    2.6889    1.0000 </r>
       <r>    2.7812    1.0000 </r>
       <r>    2.8981    1.0000 </r>
       <r>    3.1305    1.0000 </r>
       <r>    3.1971    1.0000 </r>
       <r>    3.2750    1.0000 </r>
       <r>    3.3081    1.0000 </r>
       <r>    3.3533    1.0000 </r>
       <r>    3.4377    1.0000 </r>
       <r>    3.4827    1.0000 </r>
       <r>    3.5517    1.0000 </r>
       <r>    3.5950    1.0000 </r>
       <r>    3.6398    1.0000 </r>
       <r>    3.7126    1.0000 </r>
       <r>    3.7664    1.0000 </r>
       <r>    3.8383    1.0000 </r>
       <r>    3.9324    1.0000 </r>
       <r>    3.9745    1.0000 </r>
       <r>    4.0624    1.0000 </r>
       <r>    4.1349    1.0000 </r>
       <r>    4.1926    1.0000 </r>
       <r>    4.2176    1.0000 </r>
       <r>    4.2768    1.0000 </r>
       <r>    4.3338    1.0000 </r>
       <r>    4.4389    1.0000 </r>
       <r>    4.5241    1.0000 </r>
       <r>    4.6163    1.0000 </r>
       <r>    4.6707    1.0000 </r>
       <r>    4.7040    1.0000 </r>
       <r>    4.7147    1.0000 </r>
       <r>    4.7518    1.0000 </r>
       <r>    4.7685    1.0000 </r>
       <r>    4.8446    1.0000 </r>
       <r>    4.8568    1.0000 </r>
       <r>    4.9260    1.0000 </r>
       <r>    4.9621    1.0000 </r>
       <r>    5.0192    1.0000 </r>
       <r>    5.0736    1.0000 </r>
       <r>    5.1179    1.0000 </r>
       <r>    5.1454    1.0000 </r>
       <r>    5.1667    1.0000 </r>
       <r>    5.1716    1.0000 </r>
       <r>    5.2811    1.0000 </r>
       <r>    5.3099    1.0000 </r>
       <r>    5.3520    1.0000 </r>
       <r>    5.4206    1.0000 </r>
       <r>    5.4328    1.0000 </r>
       <r>    5.4844    1.0000 </r>
       <r>    5.5105    1.0000 </r>
       <r>    5.6040    1.0000 </r>
       <r>    5.6551    1.0000 </r>
       <r>    5.6697    1.0000 </r>
       <r>    5.7311    1.0000 </r>
       <r>    5.7540    1.0000 </r>
       <r>    5.8024    1.0000 </r>
       <r>    5.9078    1.0004 </r>
       <r>    5.9403    1.0008 </r>
       <r>    5.9863    1.0023 </r>
       <r>    6.0150    1.0040 </r>
       <r>    6.0626    1.0092 </r>
       <r>    6.0915    1.0140 </r>
       <r>    6.1471    1.0261 </r>
       <r>    6.1599    1.0289 </r>
       <r>    6.1908    1.0343 </r>
       <r>    6.2258    1.0342 </r>
       <r>    6.2633    1.0196 </r>
       <r>    6.3156    0.9571 </r>
       <r>    6.3461    0.8911 </r>
       <r>    6.3925    0.7471 </r>
       <r>    6.4148    0.6623 </r>
       <r>    6.4490    0.5210 </r>
       <r>    6.4822    0.3819 </r>
       <r>    6.5147    0.2559 </r>
       <r>    6.5518    0.1361 </r>
       <r>    6.5965    0.0358 </r>
       <r>    6.6134    0.0107 </r>
       <r>    6.6547   -0.0255 </r>
       <r>    6.6940   -0.0354 </r>
       <r>    6.7161   -0.0345 </r>
       <r>    6.8140   -0.0144 </r>
       <r>    6.8705   -0.0061 </r>
       <r>    7.0053   -0.0003 </r>
       <r>    7.0321   -0.0002 </r>
       <r>    7.0624   -0.0001 </r>
       <r>    7.1775   -0.0000 </r>
       <r>    7.4518   -0.0000 </r>
       <r>    7.6196   -0.0000 </r>
       <r>    7.8367   -0.0000 </r>
       <r>    7.8498   -0.0000 </r>
       <r>    7.9051   -0.0000 </r>
       <r>    7.9410   -0.0000 </r>
      </set>
      <set comment="kpoint 8">
       <r>  -47.5542    1.0000 </r>
       <r>  -47.5313    1.0000 </r>
       <r>  -47.4910    1.0000 </r>
       <r>  -47.4472    1.0000 </r>
       <r>  -47.4167    1.0000 </r>
       <r>  -47.3333    1.0000 </r>
       <r>  -24.1734    1.0000 </r>
       <r>  -24.1030    1.0000 </r>
       <r>  -23.9544    1.0000 </r>
       <r>  -23.9199    1.0000 </r>
       <r>  -23.7107    1.0000 </r>
       <r>  -23.7062    1.0000 </r>
       <r>  -23.6994    1.0000 </r>
       <r>  -23.6549    1.0000 </r>
       <r>  -23.6376    1.0000 </r>
       <r>  -23.6236    1.0000 </r>
       <r>  -23.5980    1.0000 </r>
       <r>  -23.5540    1.0000 </r>
       <r>  -23.5227    1.0000 </r>
       <r>  -23.4965    1.0000 </r>
       <r>  -23.3716    1.0000 </r>
       <r>  -23.3545    1.0000 </r>
       <r>  -23.2029    1.0000 </r>
       <r>  -23.1044    1.0000 </r>
       <r>    0.2566    1.0000 </r>
       <r>    1.3736    1.0000 </r>
       <r>    1.6224    1.0000 </r>
       <r>    1.8169    1.0000 </r>
       <r>    2.3704    1.0000 </r>
       <r>    2.6698    1.0000 </r>
       <r>    2.7578    1.0000 </r>
       <r>    2.8438    1.0000 </r>
       <r>    2.8611    1.0000 </r>
       <r>    2.9034    1.0000 </r>
       <r>    3.0424    1.0000 </r>
       <r>    3.0787    1.0000 </r>
       <r>    3.1021    1.0000 </r>
       <r>    3.1676    1.0000 </r>
       <r>    3.1888    1.0000 </r>
       <r>    3.2370    1.0000 </r>
       <r>    3.2926    1.0000 </r>
       <r>    3.3599    1.0000 </r>
       <r>    3.4489    1.0000 </r>
       <r>    3.5201    1.0000 </r>
       <r>    3.5915    1.0000 </r>
       <r>    3.6634    1.0000 </r>
       <r>    3.7336    1.0000 </r>
       <r>    3.8443    1.0000 </r>
       <r>    3.8827    1.0000 </r>
       <r>    3.9616    1.0000 </r>
       <r>    3.9971    1.0000 </r>
       <r>    4.0659    1.0000 </r>
       <r>    4.1286    1.0000 </r>
       <r>    4.2258    1.0000 </r>
       <r>    4.2878    1.0000 </r>
       <r>    4.3545    1.0000 </r>
       <r>    4.5288    1.0000 </r>
       <r>    4.5798    1.0000 </r>
       <r>    4.6503    1.0000 </r>
       <r>    4.7132    1.0000 </r>
       <r>    4.8014    1.0000 </r>
       <r>    4.8486    1.0000 </r>
       <r>    4.8776    1.0000 </r>
       <r>    4.9626    1.0000 </r>
       <r>    5.0430    1.0000 </r>
       <r>    5.0545    1.0000 </r>
       <r>    5.1315    1.0000 </r>
       <r>    5.1606    1.0000 </r>
       <r>    5.1954    1.0000 </r>
       <r>    5.2142    1.0000 </r>
       <r>    5.3095    1.0000 </r>
       <r>    5.3421    1.0000 </r>
       <r>    5.3511    1.0000 </r>
       <r>    5.3996    1.0000 </r>
       <r>    5.4331    1.0000 </r>
       <r>    5.4944    1.0000 </r>
       <r>    5.5251    1.0000 </r>
       <r>    5.5398    1.0000 </r>
       <r>    5.5658    1.0000 </r>
       <r>    5.6308    1.0000 </r>
       <r>    5.6479    1.0000 </r>
       <r>    5.6830    1.0000 </r>
       <r>    5.7146    1.0000 </r>
       <r>    5.7718    1.0000 </r>
       <r>    5.8560    1.0001 </r>
       <r>    5.9418    1.0009 </r>
       <r>    5.9821    1.0021 </r>
       <r>    6.0223    1.0046 </r>
       <r>    6.0682    1.0100 </r>
       <r>    6.1041    1.0164 </r>
       <r>    6.1566    1.0282 </r>
       <r>    6.2033    1.0353 </r>
       <r>    6.2362    1.0321 </r>
       <r>    6.2992    0.9831 </r>
       <r>    6.3453    0.8930 </r>
       <r>    6.3661    0.8352 </r>
       <r>    6.4039    0.7049 </r>
       <r>    6.4219    0.6338 </r>
       <r>    6.4566    0.4890 </r>
       <r>    6.5432    0.1611 </r>
       <r>    6.5817    0.0635 </r>
       <r>    6.6057    0.0214 </r>
       <r>    6.6394   -0.0158 </r>
       <r>    6.6677   -0.0308 </r>
       <r>    6.7100   -0.0350 </r>
       <r>    6.7684   -0.0244 </r>
       <r>    6.8070   -0.0158 </r>
       <r>    6.9270   -0.0021 </r>
       <r>    7.0484   -0.0001 </r>
       <r>    7.1000   -0.0000 </r>
       <r>    7.1826   -0.0000 </r>
       <r>    7.3497   -0.0000 </r>
       <r>    7.5920   -0.0000 </r>
       <r>    7.6768   -0.0000 </r>
       <r>    7.7144   -0.0000 </r>
       <r>    7.8069   -0.0000 </r>
       <r>    7.8795   -0.0000 </r>
       <r>    7.9560   -0.0000 </r>
       <r>    8.0081   -0.0000 </r>
       <r>    8.1299   -0.0000 </r>
      </set>
      <set comment="kpoint 9">
       <r>  -47.5569    1.0000 </r>
       <r>  -47.5363    1.0000 </r>
       <r>  -47.4933    1.0000 </r>
       <r>  -47.4483    1.0000 </r>
       <r>  -47.4174    1.0000 </r>
       <r>  -47.3220    1.0000 </r>
       <r>  -24.2656    1.0000 </r>
       <r>  -24.1138    1.0000 </r>
       <r>  -23.9586    1.0000 </r>
       <r>  -23.9237    1.0000 </r>
       <r>  -23.7128    1.0000 </r>
       <r>  -23.7046    1.0000 </r>
       <r>  -23.7010    1.0000 </r>
       <r>  -23.6534    1.0000 </r>
       <r>  -23.6385    1.0000 </r>
       <r>  -23.6190    1.0000 </r>
       <r>  -23.5956    1.0000 </r>
       <r>  -23.5510    1.0000 </r>
       <r>  -23.5131    1.0000 </r>
       <r>  -23.4941    1.0000 </r>
       <r>  -23.3690    1.0000 </r>
       <r>  -23.3522    1.0000 </r>
       <r>  -23.2013    1.0000 </r>
       <r>  -22.9826    1.0000 </r>
       <r>    0.1800    1.0000 </r>
       <r>    0.9462    1.0000 </r>
       <r>    1.3007    1.0000 </r>
       <r>    1.7786    1.0000 </r>
       <r>    2.0914    1.0000 </r>
       <r>    2.3438    1.0000 </r>
       <r>    2.5611    1.0000 </r>
       <r>    2.5993    1.0000 </r>
       <r>    2.6936    1.0000 </r>
       <r>    2.7496    1.0000 </r>
       <r>    2.8277    1.0000 </r>
       <r>    2.9523    1.0000 </r>
       <r>    2.9677    1.0000 </r>
       <r>    3.0307    1.0000 </r>
       <r>    3.0583    1.0000 </r>
       <r>    3.1176    1.0000 </r>
       <r>    3.2151    1.0000 </r>
       <r>    3.2925    1.0000 </r>
       <r>    3.3648    1.0000 </r>
       <r>    3.4762    1.0000 </r>
       <r>    3.5223    1.0000 </r>
       <r>    3.5789    1.0000 </r>
       <r>    3.6162    1.0000 </r>
       <r>    3.6744    1.0000 </r>
       <r>    3.7430    1.0000 </r>
       <r>    3.8578    1.0000 </r>
       <r>    3.9304    1.0000 </r>
       <r>    3.9715    1.0000 </r>
       <r>    4.0136    1.0000 </r>
       <r>    4.0671    1.0000 </r>
       <r>    4.1701    1.0000 </r>
       <r>    4.2894    1.0000 </r>
       <r>    4.5720    1.0000 </r>
       <r>    4.6464    1.0000 </r>
       <r>    4.6959    1.0000 </r>
       <r>    4.7576    1.0000 </r>
       <r>    4.8048    1.0000 </r>
       <r>    4.8662    1.0000 </r>
       <r>    4.9477    1.0000 </r>
       <r>    4.9865    1.0000 </r>
       <r>    5.0053    1.0000 </r>
       <r>    5.0374    1.0000 </r>
       <r>    5.1077    1.0000 </r>
       <r>    5.1403    1.0000 </r>
       <r>    5.1624    1.0000 </r>
       <r>    5.2015    1.0000 </r>
       <r>    5.2245    1.0000 </r>
       <r>    5.2444    1.0000 </r>
       <r>    5.3038    1.0000 </r>
       <r>    5.3555    1.0000 </r>
       <r>    5.3743    1.0000 </r>
       <r>    5.4177    1.0000 </r>
       <r>    5.4353    1.0000 </r>
       <r>    5.5211    1.0000 </r>
       <r>    5.5618    1.0000 </r>
       <r>    5.6812    1.0000 </r>
       <r>    5.7523    1.0000 </r>
       <r>    5.8440    1.0001 </r>
       <r>    5.8719    1.0002 </r>
       <r>    5.9278    1.0006 </r>
       <r>    5.9502    1.0011 </r>
       <r>    6.0162    1.0041 </r>
       <r>    6.0449    1.0069 </r>
       <r>    6.0595    1.0087 </r>
       <r>    6.1156    1.0189 </r>
       <r>    6.1418    1.0249 </r>
       <r>    6.1642    1.0299 </r>
       <r>    6.1916    1.0344 </r>
       <r>    6.2373    1.0318 </r>
       <r>    6.2762    1.0094 </r>
       <r>    6.3017    0.9796 </r>
       <r>    6.3499    0.8812 </r>
       <r>    6.4131    0.6693 </r>
       <r>    6.4641    0.4572 </r>
       <r>    6.4769    0.4038 </r>
       <r>    6.5398    0.1713 </r>
       <r>    6.6133    0.0109 </r>
       <r>    6.6258   -0.0036 </r>
[...]
       <r>    4.7642    1.0000 </r>
       <r>    4.8149    1.0000 </r>
       <r>    4.8310    1.0000 </r>
       <r>    4.8830    1.0000 </r>
       <r>    4.9397    1.0000 </r>
       <r>    4.9699    1.0000 </r>
       <r>    5.0189    1.0000 </r>
       <r>    5.0771    1.0000 </r>
       <r>    5.1210    1.0000 </r>
       <r>    5.1377    1.0000 </r>
       <r>    5.2478    1.0000 </r>
       <r>    5.2978    1.0000 </r>
       <r>    5.3294    1.0000 </r>
       <r>    5.3560    1.0000 </r>
       <r>    5.4417    1.0000 </r>
       <r>    5.4807    1.0000 </r>
       <r>    5.5144    1.0000 </r>
       <r>    5.5464    1.0000 </r>
       <r>    5.6059    1.0000 </r>
       <r>    5.6402    1.0000 </r>
       <r>    5.7107    1.0000 </r>
       <r>    5.7550    1.0000 </r>
       <r>    5.8062    1.0000 </r>
       <r>    5.8530    1.0001 </r>
       <r>    5.8888    1.0002 </r>
       <r>    5.9203    1.0005 </r>
       <r>    5.9794    1.0020 </r>
       <r>    5.9855    1.0023 </r>
       <r>    6.0400    1.0063 </r>
       <r>    6.0740    1.0109 </r>
       <r>    6.0991    1.0154 </r>
       <r>    6.1239    1.0208 </r>
       <r>    6.1787    1.0326 </r>
       <r>    6.2148    1.0353 </r>
       <r>    6.2308    1.0334 </r>
       <r>    6.2623    1.0203 </r>
       <r>    6.2862    0.9994 </r>
       <r>    6.3230    0.9433 </r>
       <r>    6.3427    0.8996 </r>
       <r>    6.4743    0.4148 </r>
       <r>    6.5381    0.1767 </r>
       <r>    6.6302   -0.0079 </r>
       <r>    6.6550   -0.0256 </r>
       <r>    6.7369   -0.0312 </r>
       <r>    6.7708   -0.0238 </r>
       <r>    6.8779   -0.0053 </r>
       <r>    6.9627   -0.0010 </r>
       <r>    7.0465   -0.0001 </r>
       <r>    7.3342   -0.0000 </r>
       <r>    7.4442   -0.0000 </r>
       <r>    7.4984   -0.0000 </r>
       <r>    7.5378   -0.0000 </r>
       <r>    7.6364   -0.0000 </r>
       <r>    8.0731   -0.0000 </r>
       <r>    8.1322   -0.0000 </r>
       <r>    8.1910   -0.0000 </r>
       <r>    8.2852   -0.0000 </r>
       <r>    8.3140   -0.0000 </r>
       <r>    8.3641   -0.0000 </r>
       <r>    8.4200   -0.0000 </r>
      </set>
     </set>
    </set>
   </array>
  </eigenvalues>
  <separator name="orbital magnetization" >
   <v name="MAGDIPOLOUT">      0.00000000      0.00000000      0.00000000</v>
  </separator>
  <dos>
   <i name="efermi">      6.45400913 </i>
   <total>
    <array>
     <dimension dim="1">gridpoints</dimension>
     <dimension dim="2">spin</dimension>
     <field>energy</field>
     <field>total</field>
     <field>integrated</field>
     <set>
      <set comment="spin 1">
       <r>   -50.3630     0.0000     0.0000 </r>
       <r>   -50.1573     0.0000     0.0000 </r>
       <r>   -49.9515     0.0000     0.0000 </r>
       <r>   -49.7457     0.0000     0.0000 </r>
       <r>   -49.5400     0.0000     0.0000 </r>
       <r>   -49.3342    -0.0000    -0.0000 </r>
       <r>   -49.1284    -0.0000    -0.0000 </r>
       <r>   -48.9227    -0.0000    -0.0000 </r>
       <r>   -48.7169    -0.0000    -0.0000 </r>
       <r>   -48.5112    -0.0000    -0.0000 </r>
       <r>   -48.3054    -0.0000    -0.0000 </r>
       <r>   -48.0996    -0.0068    -0.0014 </r>
       <r>   -47.8939    -0.4312    -0.0901 </r>
       <r>   -47.6881    -0.0310    -0.0965 </r>
       <r>   -47.4823    25.9669     5.2466 </r>
       <r>   -47.2766    30.9728    11.6197 </r>
       <r>   -47.0708     2.5549    12.1454 </r>
       <r>   -46.8650    -0.6813    12.0053 </r>
       <r>   -46.6593    -0.0254    12.0000 </r>
       <r>   -46.4535    -0.0001    12.0000 </r>
       <r>   -46.2477    -0.0000    12.0000 </r>
       <r>   -46.0420    -0.0000    12.0000 </r>
       <r>   -45.8362     0.0000    12.0000 </r>
       <r>   -45.6304     0.0000    12.0000 </r>
       <r>   -45.4247     0.0000    12.0000 </r>
       <r>   -45.2189     0.0000    12.0000 </r>
       <r>   -45.0131     0.0000    12.0000 </r>
       <r>   -44.8074     0.0000    12.0000 </r>
       <r>   -44.6016     0.0000    12.0000 </r>
       <r>   -44.3958     0.0000    12.0000 </r>
       <r>   -44.1901     0.0000    12.0000 </r>
       <r>   -43.9843     0.0000    12.0000 </r>
       <r>   -43.7785     0.0000    12.0000 </r>
       <r>   -43.5728     0.0000    12.0000 </r>
       <r>   -43.3670     0.0000    12.0000 </r>
       <r>   -43.1612     0.0000    12.0000 </r>
       <r>   -42.9555     0.0000    12.0000 </r>
       <r>   -42.7497     0.0000    12.0000 </r>
       <r>   -42.5439     0.0000    12.0000 </r>
       <r>   -42.3382     0.0000    12.0000 </r>
       <r>   -42.1324     0.0000    12.0000 </r>
       <r>   -41.9267     0.0000    12.0000 </r>
       <r>   -41.7209     0.0000    12.0000 </r>
       <r>   -41.5151     0.0000    12.0000 </r>
       <r>   -41.3094     0.0000    12.0000 </r>
       <r>   -41.1036     0.0000    12.0000 </r>
       <r>   -40.8978     0.0000    12.0000 </r>
       <r>   -40.6921     0.0000    12.0000 </r>
       <r>   -40.4863     0.0000    12.0000 </r>
       <r>   -40.2805     0.0000    12.0000 </r>
       <r>   -40.0748     0.0000    12.0000 </r>
       <r>   -39.8690     0.0000    12.0000 </r>
       <r>   -39.6632     0.0000    12.0000 </r>
       <r>   -39.4575     0.0000    12.0000 </r>
       <r>   -39.2517     0.0000    12.0000 </r>
       <r>   -39.0459     0.0000    12.0000 </r>
       <r>   -38.8402     0.0000    12.0000 </r>
       <r>   -38.6344     0.0000    12.0000 </r>
       <r>   -38.4286     0.0000    12.0000 </r>
       <r>   -38.2229     0.0000    12.0000 </r>
       <r>   -38.0171     0.0000    12.0000 </r>
       <r>   -37.8113     0.0000    12.0000 </r>
       <r>   -37.6056     0.0000    12.0000 </r>
       <r>   -37.3998     0.0000    12.0000 </r>
       <r>   -37.1940     0.0000    12.0000 </r>
       <r>   -36.9883     0.0000    12.0000 </r>
       <r>   -36.7825     0.0000    12.0000 </r>
       <r>   -36.5767     0.0000    12.0000 </r>
       <r>   -36.3710     0.0000    12.0000 </r>
       <r>   -36.1652     0.0000    12.0000 </r>
       <r>   -35.9594     0.0000    12.0000 </r>
       <r>   -35.7537     0.0000    12.0000 </r>
       <r>   -35.5479     0.0000    12.0000 </r>
       <r>   -35.3422     0.0000    12.0000 </r>
       <r>   -35.1364     0.0000    12.0000 </r>
       <r>   -34.9306     0.0000    12.0000 </r>
       <r>   -34.7249     0.0000    12.0000 </r>
       <r>   -34.5191     0.0000    12.0000 </r>
       <r>   -34.3133     0.0000    12.0000 </r>
       <r>   -34.1076     0.0000    12.0000 </r>
       <r>   -33.9018     0.0000    12.0000 </r>
       <r>   -33.6960     0.0000    12.0000 </r>
       <r>   -33.4903     0.0000    12.0000 </r>
       <r>   -33.2845     0.0000    12.0000 </r>
       <r>   -33.0787     0.0000    12.0000 </r>
       <r>   -32.8730     0.0000    12.0000 </r>
       <r>   -32.6672     0.0000    12.0000 </r>
       <r>   -32.4614     0.0000    12.0000 </r>
       <r>   -32.2557     0.0000    12.0000 </r>
       <r>   -32.0499     0.0000    12.0000 </r>
       <r>   -31.8441     0.0000    12.0000 </r>
       <r>   -31.6384     0.0000    12.0000 </r>
       <r>   -31.4326     0.0000    12.0000 </r>
       <r>   -31.2268     0.0000    12.0000 </r>
       <r>   -31.0211     0.0000    12.0000 </r>
       <r>   -30.8153     0.0000    12.0000 </r>
       <r>   -30.6095     0.0000    12.0000 </r>
       <r>   -30.4038     0.0000    12.0000 </r>
       <r>   -30.1980     0.0000    12.0000 </r>
       <r>   -29.9922     0.0000    12.0000 </r>
       <r>   -29.7865     0.0000    12.0000 </r>
       <r>   -29.5807     0.0000    12.0000 </r>
       <r>   -29.3749     0.0000    12.0000 </r>
       <r>   -29.1692     0.0000    12.0000 </r>
       <r>   -28.9634     0.0000    12.0000 </r>
       <r>   -28.7577     0.0000    12.0000 </r>
       <r>   -28.5519     0.0000    12.0000 </r>
       <r>   -28.3461     0.0000    12.0000 </r>
       <r>   -28.1404     0.0000    12.0000 </r>
       <r>   -27.9346     0.0000    12.0000 </r>
       <r>   -27.7288     0.0000    12.0000 </r>
       <r>   -27.5231     0.0000    12.0000 </r>
       <r>   -27.3173     0.0000    12.0000 </r>
       <r>   -27.1115     0.0000    12.0000 </r>
       <r>   -26.9058     0.0000    12.0000 </r>
       <r>   -26.7000     0.0000    12.0000 </r>
       <r>   -26.4942     0.0000    12.0000 </r>
       <r>   -26.2885     0.0000    12.0000 </r>
       <r>   -26.0827     0.0000    12.0000 </r>
       <r>   -25.8769    -0.0000    12.0000 </r>
       <r>   -25.6712    -0.0000    12.0000 </r>
       <r>   -25.4654    -0.0000    12.0000 </r>
       <r>   -25.2596    -0.0000    12.0000 </r>
       <r>   -25.0539    -0.0000    12.0000 </r>
       <r>   -24.8481    -0.0003    11.9999 </r>
       <r>   -24.6423    -0.0370    11.9923 </r>
       <r>   -24.4366    -0.3580    11.9187 </r>
       <r>   -24.2308     2.9466    12.5250 </r>
       <r>   -24.0250    14.3505    15.4778 </r>
       <r>   -23.8193    20.2718    19.6490 </r>
       <r>   -23.6135    53.1936    30.5944 </r>
       <r>   -23.4077    52.8857    41.4765 </r>
       <r>   -23.2020    22.0351    46.0106 </r>
       <r>   -22.9962     8.7461    47.8102 </r>
       <r>   -22.7904     1.1285    48.0424 </r>
       <r>   -22.5847    -0.1867    48.0040 </r>
       <r>   -22.3789    -0.0194    48.0000 </r>
       <r>   -22.1732    -0.0002    48.0000 </r>
       <r>   -21.9674    -0.0000    48.0000 </r>
       <r>   -21.7616    -0.0000    48.0000 </r>
       <r>   -21.5559    -0.0000    48.0000 </r>
       <r>   -21.3501     0.0000    48.0000 </r>
       <r>   -21.1443     0.0000    48.0000 </r>
       <r>   -20.9386     0.0000    48.0000 </r>
       <r>   -20.7328     0.0000    48.0000 </r>
       <r>   -20.5270     0.0000    48.0000 </r>
       <r>   -20.3213     0.0000    48.0000 </r>
       <r>   -20.1155     0.0000    48.0000 </r>
       <r>   -19.9097     0.0000    48.0000 </r>
       <r>   -19.7040     0.0000    48.0000 </r>
       <r>   -19.4982     0.0000    48.0000 </r>
       <r>   -19.2924     0.0000    48.0000 </r>
       <r>   -19.0867     0.0000    48.0000 </r>
       <r>   -18.8809     0.0000    48.0000 </r>
       <r>   -18.6751     0.0000    48.0000 </r>
       <r>   -18.4694     0.0000    48.0000 </r>
       <r>   -18.2636     0.0000    48.0000 </r>
       <r>   -18.0578     0.0000    48.0000 </r>
       <r>   -17.8521     0.0000    48.0000 </r>
       <r>   -17.6463     0.0000    48.0000 </r>
       <r>   -17.4405     0.0000    48.0000 </r>
       <r>   -17.2348     0.0000    48.0000 </r>
       <r>   -17.0290     0.0000    48.0000 </r>
       <r>   -16.8232     0.0000    48.0000 </r>
       <r>   -16.6175     0.0000    48.0000 </r>
       <r>   -16.4117     0.0000    48.0000 </r>
       <r>   -16.2059     0.0000    48.0000 </r>
       <r>   -16.0002     0.0000    48.0000 </r>
       <r>   -15.7944     0.0000    48.0000 </r>
       <r>   -15.5887     0.0000    48.0000 </r>
       <r>   -15.3829     0.0000    48.0000 </r>
       <r>   -15.1771     0.0000    48.0000 </r>
       <r>   -14.9714     0.0000    48.0000 </r>
       <r>   -14.7656     0.0000    48.0000 </r>
       <r>   -14.5598     0.0000    48.0000 </r>
       <r>   -14.3541     0.0000    48.0000 </r>
       <r>   -14.1483     0.0000    48.0000 </r>
       <r>   -13.9425     0.0000    48.0000 </r>
       <r>   -13.7368     0.0000    48.0000 </r>
       <r>   -13.5310     0.0000    48.0000 </r>
       <r>   -13.3252     0.0000    48.0000 </r>
       <r>   -13.1195     0.0000    48.0000 </r>
       <r>   -12.9137     0.0000    48.0000 </r>
       <r>   -12.7079     0.0000    48.0000 </r>
       <r>   -12.5022     0.0000    48.0000 </r>
       <r>   -12.2964     0.0000    48.0000 </r>
       <r>   -12.0906     0.0000    48.0000 </r>
       <r>   -11.8849     0.0000    48.0000 </r>
       <r>   -11.6791     0.0000    48.0000 </r>
       <r>   -11.4733     0.0000    48.0000 </r>
       <r>   -11.2676     0.0000    48.0000 </r>
       <r>   -11.0618     0.0000    48.0000 </r>
       <r>   -10.8560     0.0000    48.0000 </r>
       <r>   -10.6503     0.0000    48.0000 </r>
       <r>   -10.4445     0.0000    48.0000 </r>
       <r>   -10.2387     0.0000    48.0000 </r>
       <r>   -10.0330     0.0000    48.0000 </r>
       <r>    -9.8272     0.0000    48.0000 </r>
       <r>    -9.6214     0.0000    48.0000 </r>
       <r>    -9.4157     0.0000    48.0000 </r>
       <r>    -9.2099     0.0000    48.0000 </r>
       <r>    -9.0042     0.0000    48.0000 </r>
       <r>    -8.7984     0.0000    48.0000 </r>
       <r>    -8.5926     0.0000    48.0000 </r>
       <r>    -8.3869     0.0000    48.0000 </r>
       <r>    -8.1811     0.0000    48.0000 </r>
       <r>    -7.9753     0.0000    48.0000 </r>
       <r>    -7.7696     0.0000    48.0000 </r>
       <r>    -7.5638     0.0000    48.0000 </r>
       <r>    -7.3580     0.0000    48.0000 </r>
       <r>    -7.1523     0.0000    48.0000 </r>
       <r>    -6.9465     0.0000    48.0000 </r>
       <r>    -6.7407     0.0000    48.0000 </r>
       <r>    -6.5350     0.0000    48.0000 </r>
       <r>    -6.3292     0.0000    48.0000 </r>
       <r>    -6.1234     0.0000    48.0000 </r>
       <r>    -5.9177     0.0000    48.0000 </r>
       <r>    -5.7119     0.0000    48.0000 </r>
       <r>    -5.5061     0.0000    48.0000 </r>
       <r>    -5.3004     0.0000    48.0000 </r>
       <r>    -5.0946     0.0000    48.0000 </r>
       <r>    -4.8888     0.0000    48.0000 </r>
       <r>    -4.6831     0.0000    48.0000 </r>
       <r>    -4.4773     0.0000    48.0000 </r>
       <r>    -4.2715     0.0000    48.0000 </r>
       <r>    -4.0658     0.0000    48.0000 </r>
       <r>    -3.8600     0.0000    48.0000 </r>
       <r>    -3.6542     0.0000    48.0000 </r>
       <r>    -3.4485     0.0000    48.0000 </r>
       <r>    -3.2427     0.0000    48.0000 </r>
       <r>    -3.0369     0.0000    48.0000 </r>
       <r>    -2.8312     0.0000    48.0000 </r>
       <r>    -2.6254     0.0000    48.0000 </r>
       <r>    -2.4196     0.0000    48.0000 </r>
       <r>    -2.2139     0.0000    48.0000 </r>
       <r>    -2.0081    -0.0000    48.0000 </r>
       <r>    -1.8024    -0.0000    48.0000 </r>
       <r>    -1.5966    -0.0000    48.0000 </r>
       <r>    -1.3908    -0.0000    48.0000 </r>
       <r>    -1.1851    -0.0000    48.0000 </r>
       <r>    -0.9793    -0.0000    48.0000 </r>
       <r>    -0.7735    -0.0002    48.0000 </r>
       <r>    -0.5678    -0.0072    47.9985 </r>
       <r>    -0.3620     0.0053    47.9996 </r>
       <r>    -0.1562     0.3367    48.0688 </r>
       <r>     0.0495     1.0235    48.2795 </r>
       <r>     0.2553     1.7740    48.6445 </r>
       <r>     0.4611     1.8944    49.0343 </r>
       <r>     0.6668     1.5706    49.3575 </r>
       <r>     0.8726     2.4723    49.8662 </r>
       <r>     1.0784     3.3602    50.5576 </r>
       <r>     1.2841     3.5207    51.2820 </r>
       <r>     1.4899     2.6052    51.8181 </r>
       <r>     1.6957     4.2176    52.6859 </r>
       <r>     1.9014     4.8085    53.6754 </r>
       <r>     2.1072     5.5153    54.8102 </r>
       <r>     2.3130     7.3940    56.3317 </r>
       <r>     2.5187    10.2028    58.4311 </r>
       <r>     2.7245    16.4158    61.8089 </r>
       <r>     2.9303    22.0077    66.3373 </r>
       <r>     3.1360    25.5808    71.6010 </r>
       <r>     3.3418    30.6681    77.9114 </r>
       <r>     3.5476    30.8776    84.2649 </r>
       <r>     3.7533    31.8024    90.8088 </r>
       <r>     3.9591    32.4557    97.4870 </r>
       <r>     4.1649    31.6256   103.9945 </r>
       <r>     4.3706    26.8565   109.5207 </r>
       <r>     4.5764    22.9778   114.2487 </r>
       <r>     4.7821    32.5735   120.9512 </r>
       <r>     4.9879    40.8610   129.3590 </r>
       <r>     5.1937    46.5540   138.9382 </r>
       <r>     5.3994    46.4792   148.5020 </r>
       <r>     5.6052    43.4885   157.4505 </r>
       <r>     5.8110    41.8705   166.0660 </r>
       <r>     6.0167    46.5655   175.6476 </r>
       <r>     6.2225    51.8772   186.3221 </r>
       <r>     6.4283    50.8251   196.7802 </r>
       <r>     6.6340    44.5610   205.9493 </r>
       <r>     6.8398    34.2840   213.0038 </r>
       <r>     7.0456    21.5403   217.4360 </r>
       <r>     7.2513    13.7020   220.2554 </r>
       <r>     7.4571    13.3992   223.0125 </r>
       <r>     7.6629    16.7173   226.4523 </r>
       <r>     7.8686    19.4554   230.4556 </r>
       <r>     8.0744    20.8956   234.7552 </r>
       <r>     8.2802    16.5243   238.1553 </r>
       <r>     8.4859     7.9563   239.7925 </r>
       <r>     8.6917     1.2018   240.0398 </r>
       <r>     8.8975    -0.1755   240.0036 </r>
       <r>     9.1032    -0.0175   240.0000 </r>
       <r>     9.3090    -0.0002   240.0000 </r>
       <r>     9.5148    -0.0000   240.0000 </r>
       <r>     9.7205    -0.0000   240.0000 </r>
       <r>     9.9263    -0.0000   240.0000 </r>
       <r>    10.1321     0.0000   240.0000 </r>
       <r>    10.3378     0.0000   240.0000 </r>
       <r>    10.5436     0.0000   240.0000 </r>
       <r>    10.7494     0.0000   240.0000 </r>
       <r>    10.9551     0.0000   240.0000 </r>
       <r>    11.1609     0.0000   240.0000 </r>
       <r>    11.3666     0.0000   240.0000 </r>
      </set>
     </set>
    </array>
   </total>
  </dos>
 </calculation>
 <structure name="finalpos" >
  <crystal>
   <varray name="basis" >
    <v>      -3.19000000      -3.19000000      -3.19000000 </v>
    <v>       1.59500000       1.59500000      -7.97500000 </v>
    <v>       7.97500000      -7.97500000      -1.59500000 </v>
   </varray>
   <i name="volume">    486.92638500 </i>
   <varray name="rec_basis" >
    <v>      -0.13584117      -0.12539185      -0.05224660 </v>
    <v>       0.04179728       0.06269592      -0.10449321 </v>
    <v>       0.06269592      -0.06269592       0.00000000 </v>
   </varray>
  </crystal>
  <varray name="positions" >
   <v>       0.96666667       0.93333333       0.40000000 </v>
   <v>       0.63333333       0.26666667       0.40000000 </v>
   <v>       0.50000000       0.00000000       0.00000000 </v>
   <v>       0.00000000       0.00000000       0.00000000 </v>
   <v>       0.10000000       0.20000000       0.80000000 </v>
   <v>       0.03333333       0.06666667       0.60000000 </v>
   <v>       0.90000000       0.80000000       0.20000000 </v>
   <v>       0.80000000       0.60000000       0.40000000 </v>
   <v>       0.73333333       0.46666667       0.20000000 </v>
   <v>       0.66666667       0.33333333       0.00000000 </v>
   <v>       0.36666667       0.73333333       0.60000000 </v>
   <v>       0.13333333       0.26666667       0.40000000 </v>
   <v>       0.83333333       0.66666667       0.00000000 </v>
   <v>       0.93333333       0.86666667       0.80000000 </v>
   <v>       0.56666667       0.13333333       0.20000000 </v>
   <v>       0.40000000       0.80000000       0.20000000 </v>
   <v>       0.43333333       0.86666667       0.80000000 </v>
   <v>       0.30000000       0.60000000       0.40000000 </v>
   <v>       0.86666667       0.73333333       0.60000000 </v>
   <v>       0.46666667       0.93333333       0.40000000 </v>
   <v>       0.16666667       0.33333333       0.00000000 </v>
   <v>       0.26666667       0.53333333       0.80000000 </v>
   <v>       0.20000000       0.40000000       0.60000000 </v>
   <v>       0.06666667       0.13333333       0.20000000 </v>
   <v>       0.76666667       0.53333333       0.80000000 </v>
   <v>       0.70000000       0.40000000       0.60000000 </v>
   <v>       0.60000000       0.20000000       0.80000000 </v>
   <v>       0.53333333       0.06666667       0.60000000 </v>
   <v>       0.33333333       0.66666667       0.00000000 </v>
   <v>       0.23333333       0.46666667       0.20000000 </v>
  </varray>
 </structure>
</modeling>
