  29  29   0   0
  0.1679057E+02  0.5525242E-09  0.8287863E-09  0.1139058E-08  0.5000000E-15
  1.000000000000000E-004
  CAR 
 SQS with 1 vacancy for VFE and VRV      
     12.07687448    -50.29246998  301      6.76777727      1.00000000
    -50.292  0.0000E+00  0.0000E+00
    -50.085  0.0000E+00  0.0000E+00
    -49.877  0.0000E+00  0.0000E+00
    -49.669  0.0000E+00  0.0000E+00
    -49.461  0.0000E+00  0.0000E+00
    -49.253 -0.3145E-35 -0.6539E-36
    -49.045 -0.1263E-27 -0.2626E-28
    -48.837 -0.5753E-21 -0.1196E-21
    -48.629 -0.2861E-15 -0.5948E-16
    -48.421 -0.1654E-10 -0.3438E-11
    -48.213 -0.1049E-06 -0.2182E-07
    -48.006 -0.7116E-04 -0.1482E-04
    -47.798 -0.4464E-02 -0.9430E-03
    -47.590  0.5127E-02  0.1228E-03
    -47.382  0.2364E+00  0.4927E-01
    -47.174  0.3077E+00  0.1132E+00
    -46.966  0.3996E+00  0.1963E+00
    -46.758  0.2158E+00  0.2412E+00
    -46.550 -0.2062E-02  0.2407E+00
    -46.342 -0.3541E-02  0.2400E+00
    -46.135 -0.5395E-04  0.2400E+00
    -45.927 -0.7712E-07  0.2400E+00
    -45.719 -0.1161E-10  0.2400E+00
    -45.511 -0.1880E-15  0.2400E+00
    -45.303  0.0000E+00  0.2400E+00
    -45.095  0.0000E+00  0.2400E+00
    -44.887  0.0000E+00  0.2400E+00
    -44.679  0.0000E+00  0.2400E+00
    -44.471  0.0000E+00  0.2400E+00
    -44.263  0.0000E+00  0.2400E+00
    -44.056  0.0000E+00  0.2400E+00
    -43.848  0.0000E+00  0.2400E+00
    -43.640  0.0000E+00  0.2400E+00
    -43.432  0.0000E+00  0.2400E+00
    -43.224  0.0000E+00  0.2400E+00
    -43.016  0.0000E+00  0.2400E+00
    -42.808  0.0000E+00  0.2400E+00
    -42.600  0.0000E+00  0.2400E+00
    -42.392  0.0000E+00  0.2400E+00
    -42.184  0.0000E+00  0.2400E+00
    -41.977  0.0000E+00  0.2400E+00
    -41.769  0.0000E+00  0.2400E+00
    -41.561  0.0000E+00  0.2400E+00
    -41.353  0.0000E+00  0.2400E+00
    -41.145  0.0000E+00  0.2400E+00
    -40.937  0.0000E+00  0.2400E+00
    -40.729  0.0000E+00  0.2400E+00
    -40.521  0.0000E+00  0.2400E+00
    -40.313  0.0000E+00  0.2400E+00
    -40.105  0.0000E+00  0.2400E+00
    -39.898  0.0000E+00  0.2400E+00
    -39.690  0.0000E+00  0.2400E+00
    -39.482  0.0000E+00  0.2400E+00
    -39.274  0.0000E+00  0.2400E+00
    -39.066  0.0000E+00  0.2400E+00
    -38.858  0.0000E+00  0.2400E+00
    -38.650  0.0000E+00  0.2400E+00
    -38.442  0.0000E+00  0.2400E+00
    -38.234  0.0000E+00  0.2400E+00
    -38.026  0.0000E+00  0.2400E+00
    -37.819  0.0000E+00  0.2400E+00
    -37.611  0.0000E+00  0.2400E+00
    -37.403  0.0000E+00  0.2400E+00
    -37.195  0.0000E+00  0.2400E+00
    -36.987  0.0000E+00  0.2400E+00
    -36.779  0.0000E+00  0.2400E+00
    -36.571  0.0000E+00  0.2400E+00
    -36.363  0.0000E+00  0.2400E+00
    -36.155  0.0000E+00  0.2400E+00
    -35.948  0.0000E+00  0.2400E+00
    -35.740  0.0000E+00  0.2400E+00
    -35.532  0.0000E+00  0.2400E+00
    -35.324  0.0000E+00  0.2400E+00
    -35.116  0.0000E+00  0.2400E+00
    -34.908  0.0000E+00  0.2400E+00
    -34.700  0.0000E+00  0.2400E+00
    -34.492  0.0000E+00  0.2400E+00
    -34.284  0.0000E+00  0.2400E+00
    -34.076  0.0000E+00  0.2400E+00
    -33.869  0.0000E+00  0.2400E+00
    -33.661  0.0000E+00  0.2400E+00
    -33.453  0.0000E+00  0.2400E+00
    -33.245  0.0000E+00  0.2400E+00
    -33.037  0.0000E+00  0.2400E+00
    -32.829  0.0000E+00  0.2400E+00
    -32.621  0.0000E+00  0.2400E+00
    -32.413  0.0000E+00  0.2400E+00
    -32.205  0.0000E+00  0.2400E+00
    -31.997  0.0000E+00  0.2400E+00
    -31.790  0.0000E+00  0.2400E+00
    -31.582  0.0000E+00  0.2400E+00
    -31.374  0.0000E+00  0.2400E+00
    -31.166  0.0000E+00  0.2400E+00
    -30.958  0.0000E+00  0.2400E+00
    -30.750  0.0000E+00  0.2400E+00
    -30.542  0.0000E+00  0.2400E+00
    -30.334  0.0000E+00  0.2400E+00
    -30.126  0.0000E+00  0.2400E+00
    -29.918  0.0000E+00  0.2400E+00
    -29.711  0.0000E+00  0.2400E+00
    -29.503  0.0000E+00  0.2400E+00
    -29.295  0.0000E+00  0.2400E+00
    -29.087  0.0000E+00  0.2400E+00
    -28.879  0.0000E+00  0.2400E+00
    -28.671  0.0000E+00  0.2400E+00
    -28.463  0.0000E+00  0.2400E+00
    -28.255  0.0000E+00  0.2400E+00
    -28.047  0.0000E+00  0.2400E+00
    -27.840  0.0000E+00  0.2400E+00
    -27.632  0.0000E+00  0.2400E+00
    -27.424  0.0000E+00  0.2400E+00
    -27.216  0.0000E+00  0.2400E+00
    -27.008  0.0000E+00  0.2400E+00
    -26.800  0.0000E+00  0.2400E+00
    -26.592  0.0000E+00  0.2400E+00
    -26.384  0.0000E+00  0.2400E+00
    -26.176  0.0000E+00  0.2400E+00
    -25.968  0.0000E+00  0.2400E+00
    -25.761 -0.2409E-32  0.2400E+00
    -25.553 -0.3600E-25  0.2400E+00
    -25.345 -0.6089E-19  0.2400E+00
    -25.137 -0.1122E-13  0.2400E+00
    -24.929 -0.2361E-09  0.2400E+00
    -24.721 -0.5510E-06  0.2400E+00
    -24.513 -0.1431E-03  0.2400E+00
    -24.305 -0.3925E-02  0.2392E+00
    -24.097  0.9795E-02  0.2412E+00
    -23.889  0.1826E+00  0.2791E+00
    -23.682  0.4296E+00  0.3685E+00
    -23.474  0.6515E+00  0.5039E+00
    -23.266  0.6986E+00  0.6491E+00
    -23.058  0.7821E+00  0.8117E+00
    -22.850  0.5484E+00  0.9258E+00
    -22.642  0.1634E+00  0.9597E+00
    -22.434  0.4776E-02  0.9607E+00
    -22.226 -0.3274E-02  0.9600E+00
    -22.018 -0.1412E-03  0.9600E+00
    -21.810 -0.6172E-06  0.9600E+00
    -21.603 -0.2878E-09  0.9600E+00
    -21.395 -0.1461E-13  0.9600E+00
    -21.187  0.0000E+00  0.9600E+00
    -20.979  0.0000E+00  0.9600E+00
    -20.771  0.0000E+00  0.9600E+00
    -20.563  0.0000E+00  0.9600E+00
    -20.355  0.0000E+00  0.9600E+00
    -20.147  0.0000E+00  0.9600E+00
    -19.939  0.0000E+00  0.9600E+00
    -19.731  0.0000E+00  0.9600E+00
    -19.524  0.0000E+00  0.9600E+00
    -19.316  0.0000E+00  0.9600E+00
    -19.108  0.0000E+00  0.9600E+00
    -18.900  0.0000E+00  0.9600E+00
    -18.692  0.0000E+00  0.9600E+00
    -18.484  0.0000E+00  0.9600E+00
    -18.276  0.0000E+00  0.9600E+00
    -18.068  0.0000E+00  0.9600E+00
    -17.860  0.0000E+00  0.9600E+00
    -17.653  0.0000E+00  0.9600E+00
    -17.445  0.0000E+00  0.9600E+00
    -17.237  0.0000E+00  0.9600E+00
    -17.029  0.0000E+00  0.9600E+00
    -16.821  0.0000E+00  0.9600E+00
    -16.613  0.0000E+00  0.9600E+00
    -16.405  0.0000E+00  0.9600E+00
    -16.197  0.0000E+00  0.9600E+00
    -15.989  0.0000E+00  0.9600E+00
    -15.781  0.0000E+00  0.9600E+00
    -15.574  0.0000E+00  0.9600E+00
    -15.366  0.0000E+00  0.9600E+00
    -15.158  0.0000E+00  0.9600E+00
    -14.950  0.0000E+00  0.9600E+00
    -14.742  0.0000E+00  0.9600E+00
    -14.534  0.0000E+00  0.9600E+00
    -14.326  0.0000E+00  0.9600E+00
    -14.118  0.0000E+00  0.9600E+00
    -13.910  0.0000E+00  0.9600E+00
    -13.702  0.0000E+00  0.9600E+00
    -13.495  0.0000E+00  0.9600E+00
    -13.287  0.0000E+00  0.9600E+00
    -13.079  0.0000E+00  0.9600E+00
    -12.871  0.0000E+00  0.9600E+00
    -12.663  0.0000E+00  0.9600E+00
    -12.455  0.0000E+00  0.9600E+00
    -12.247  0.0000E+00  0.9600E+00
    -12.039  0.0000E+00  0.9600E+00
    -11.831  0.0000E+00  0.9600E+00
    -11.623  0.0000E+00  0.9600E+00
    -11.416  0.0000E+00  0.9600E+00
    -11.208  0.0000E+00  0.9600E+00
    -11.000  0.0000E+00  0.9600E+00
    -10.792  0.0000E+00  0.9600E+00
    -10.584  0.0000E+00  0.9600E+00
    -10.376  0.0000E+00  0.9600E+00
    -10.168  0.0000E+00  0.9600E+00
     -9.960  0.0000E+00  0.9600E+00
     -9.752  0.0000E+00  0.9600E+00
     -9.544  0.0000E+00  0.9600E+00
     -9.337  0.0000E+00  0.9600E+00
     -9.129  0.0000E+00  0.9600E+00
     -8.921  0.0000E+00  0.9600E+00
     -8.713  0.0000E+00  0.9600E+00
     -8.505  0.0000E+00  0.9600E+00
     -8.297  0.0000E+00  0.9600E+00
     -8.089  0.0000E+00  0.9600E+00
     -7.881  0.0000E+00  0.9600E+00
     -7.673  0.0000E+00  0.9600E+00
     -7.466  0.0000E+00  0.9600E+00
     -7.258  0.0000E+00  0.9600E+00
     -7.050  0.0000E+00  0.9600E+00
     -6.842  0.0000E+00  0.9600E+00
     -6.634  0.0000E+00  0.9600E+00
     -6.426  0.0000E+00  0.9600E+00
     -6.218  0.0000E+00  0.9600E+00
     -6.010  0.0000E+00  0.9600E+00
     -5.802  0.0000E+00  0.9600E+00
     -5.594  0.0000E+00  0.9600E+00
     -5.387  0.0000E+00  0.9600E+00
     -5.179  0.0000E+00  0.9600E+00
     -4.971  0.0000E+00  0.9600E+00
     -4.763  0.0000E+00  0.9600E+00
     -4.555  0.0000E+00  0.9600E+00
     -4.347  0.0000E+00  0.9600E+00
     -4.139  0.0000E+00  0.9600E+00
     -3.931  0.0000E+00  0.9600E+00
     -3.723  0.0000E+00  0.9600E+00
     -3.515  0.0000E+00  0.9600E+00
     -3.308  0.0000E+00  0.9600E+00
     -3.100  0.0000E+00  0.9600E+00
     -2.892  0.0000E+00  0.9600E+00
     -2.684  0.0000E+00  0.9600E+00
     -2.476  0.0000E+00  0.9600E+00
     -2.268 -0.3598E-35  0.9600E+00
     -2.060 -0.8119E-28  0.9600E+00
     -1.852 -0.2072E-21  0.9600E+00
     -1.644 -0.5830E-16  0.9600E+00
     -1.436 -0.1891E-11  0.9600E+00
     -1.229 -0.6927E-08  0.9600E+00
     -1.021 -0.2828E-05  0.9600E+00
     -0.813 -0.1180E-03  0.9600E+00
     -0.605  0.3138E-04  0.9600E+00
     -0.397  0.5823E-02  0.9612E+00
     -0.189  0.1883E-01  0.9651E+00
      0.019  0.3247E-01  0.9719E+00
      0.227  0.3799E-01  0.9798E+00
      0.435  0.3201E-01  0.9864E+00
      0.642  0.5276E-01  0.9974E+00
      0.850  0.6725E-01  0.1011E+01
      1.058  0.6013E-01  0.1024E+01
      1.266  0.5535E-01  0.1035E+01
      1.474  0.8571E-01  0.1053E+01
      1.682  0.8933E-01  0.1072E+01
      1.890  0.8969E-01  0.1090E+01
      2.098  0.1302E+00  0.1117E+01
      2.306  0.1959E+00  0.1158E+01
      2.514  0.3190E+00  0.1225E+01
      2.721  0.3866E+00  0.1305E+01
      2.929  0.4375E+00  0.1396E+01
      3.137  0.5441E+00  0.1509E+01
      3.345  0.5602E+00  0.1625E+01
      3.553  0.5657E+00  0.1743E+01
      3.761  0.5745E+00  0.1862E+01
      3.969  0.6227E+00  0.1992E+01
      4.177  0.5982E+00  0.2116E+01
      4.385  0.5020E+00  0.2221E+01
      4.593  0.5547E+00  0.2336E+01
      4.800  0.7313E+00  0.2488E+01
      5.008  0.7792E+00  0.2650E+01
      5.216  0.7576E+00  0.2808E+01
      5.424  0.7269E+00  0.2959E+01
      5.632  0.7416E+00  0.3113E+01
      5.840  0.7424E+00  0.3267E+01
      6.048  0.7736E+00  0.3428E+01
      6.256  0.8173E+00  0.3598E+01
      6.464  0.8138E+00  0.3767E+01
      6.672  0.7268E+00  0.3918E+01
      6.879  0.6024E+00  0.4043E+01
      7.087  0.4656E+00  0.4140E+01
      7.295  0.3726E+00  0.4218E+01
      7.503  0.3162E+00  0.4283E+01
      7.711  0.3109E+00  0.4348E+01
      7.919  0.3280E+00  0.4416E+01
      8.127  0.3761E+00  0.4494E+01
      8.335  0.4284E+00  0.4584E+01
      8.543  0.4259E+00  0.4672E+01
      8.751  0.3217E+00  0.4739E+01
      8.958  0.2001E+00  0.4781E+01
      9.166  0.8433E-01  0.4798E+01
      9.374  0.1067E-01  0.4800E+01
      9.582 -0.1461E-02  0.4800E+01
      9.790 -0.1913E-03  0.4800E+01
      9.998 -0.2257E-05  0.4800E+01
     10.206 -0.2969E-08  0.4800E+01
     10.414 -0.4419E-12  0.4800E+01
     10.622 -0.7519E-17  0.4800E+01
     10.829  0.0000E+00  0.4800E+01
     11.037  0.0000E+00  0.4800E+01
     11.245  0.0000E+00  0.4800E+01
     11.453  0.0000E+00  0.4800E+01
     11.661  0.0000E+00  0.4800E+01
     11.869  0.0000E+00  0.4800E+01
     12.077  0.0000E+00  0.4800E+01
