   29   29   50    1
  0.1679057E+02  0.5525242E-09  0.8287863E-09  0.1139058E-08  0.5000000E-15
  1.000000000000000E-004
  CAR 
 SQS with 1 vacancy for VFE and VRV      
    199     63    120
 
  0.0000000E+00  0.0000000E+00  0.0000000E+00  0.8000000E-02
    1      -47.457500   1.000000
    2      -47.382390   1.000000
    3      -47.212573   1.000000
    4      -47.072052   1.000000
    5      -47.023605   1.000000
    6      -46.896966   1.000000
    7      -24.054979   1.000000
    8      -23.890979   1.000000
    9      -23.744124   1.000000
   10      -23.681474   1.000000
   11      -23.597955   1.000000
   12      -23.537125   1.000000
   13      -23.506298   1.000000
   14      -23.385734   1.000000
   15      -23.363385   1.000000
   16      -23.261928   1.000000
   17      -23.249396   1.000000
   18      -23.236797   1.000000
   19      -23.106620   1.000000
   20      -23.078996   1.000000
   21      -23.049426   1.000000
   22      -22.964711   1.000000
   23      -22.871723   1.000000
   24      -22.679340   1.000000
   25       -0.524100   1.000000
   26        0.856681   1.000000
   27        1.125381   1.000000
   28        2.025170   1.000000
   29        2.089062   1.000000
   30        2.118668   1.000000
   31        2.294184   1.000000
   32        2.384272   1.000000
   33        2.486056   1.000000
   34        2.521790   1.000000
   35        2.632211   1.000000
   36        2.696805   1.000000
   37        2.855539   1.000000
   38        2.870020   1.000000
   39        2.879640   1.000000
   40        3.017413   1.000000
   41        3.115332   1.000000
   42        3.215847   1.000000
   43        3.284904   1.000000
   44        3.366477   1.000000
   45        3.441200   1.000000
   46        3.483939   1.000000
   47        3.565299   1.000000
   48        3.601348   1.000000
   49        3.693530   1.000000
   50        3.746052   1.000000
   51        3.847207   1.000000
   52        3.897007   1.000000
   53        3.938884   1.000000
   54        4.043960   1.000000
   55        4.163290   1.000000
   56        4.210668   1.000000
   57        4.313880   1.000000
   58        4.388329   1.000000
   59        4.464076   1.000000
   60        4.522474   1.000000
   61        4.605680   1.000000
   62        4.652695   1.000000
   63        4.700053   1.000000
   64        4.774802   1.000000
   65        4.842150   1.000000
   66        4.867679   1.000000
   67        4.897385   1.000000
   68        4.915436   1.000000
   69        4.977606   1.000000
   70        5.006168   1.000000
   71        5.087624   1.000000
   72        5.226092   1.000000
   73        5.256137   1.000000
   74        5.329806   1.000000
   75        5.444373   1.000000
   76        5.485731   1.000000
   77        5.509776   1.000000
   78        5.580576   1.000000
   79        5.649826   1.000000
   80        5.708990   1.000000
   81        5.775878   1.000000
   82        5.844878   1.000000
   83        5.943162   1.000000
   84        6.049555   1.000002
   85        6.094924   1.000011
   86        6.137601   1.000039
   87        6.206464   1.000264
   88        6.214208   1.000322
   89        6.301575   1.002382
   90        6.367263   1.007928
   91        6.381243   1.009877
   92        6.512049   1.035042
   93        6.599913   0.999435
   94        6.608628   0.988951
   95        6.760120   0.532375
   96        6.784948   0.427639
   97        6.889161   0.076905
   98        6.958979  -0.019939
   99        6.989185  -0.032966
  100        7.052024  -0.030970
  101        7.103128  -0.019571
  102        7.240576  -0.002081
  103        7.289928  -0.000696
  104        7.624718  -0.000000
  105        7.757797  -0.000000
  106        7.808056  -0.000000
  107        7.841747  -0.000000
  108        8.017746  -0.000000
  109        8.127342  -0.000000
  110        8.435669  -0.000000
  111        8.512550  -0.000000
  112        8.563523  -0.000000
  113        8.704690  -0.000000
  114        8.745482  -0.000000
  115        8.794660  -0.000000
  116        8.941125  -0.000000
  117        8.991792  -0.000000
  118        9.041756  -0.000000
  119        9.080400  -0.000000
  120        9.120337  -0.000000
 
  0.2000000E+00 -0.1387779E-16  0.0000000E+00  0.1600000E-01
    1      -47.453711   1.000000
    2      -47.381832   1.000000
    3      -47.211916   1.000000
    4      -47.072081   1.000000
    5      -47.023328   1.000000
    6      -46.901088   1.000000
    7      -23.960655   1.000000
    8      -23.886884   1.000000
    9      -23.737996   1.000000
   10      -23.678369   1.000000
   11      -23.593961   1.000000
   12      -23.537730   1.000000
   13      -23.514531   1.000000
   14      -23.389871   1.000000
   15      -23.366135   1.000000
   16      -23.265626   1.000000
   17      -23.252823   1.000000
   18      -23.242913   1.000000
   19      -23.111498   1.000000
   20      -23.084330   1.000000
   21      -23.051505   1.000000
   22      -22.971040   1.000000
   23      -22.874633   1.000000
   24      -22.792965   1.000000
   25       -0.212200   1.000000
   26        1.103876   1.000000
   27        1.409745   1.000000
   28        2.106295   1.000000
   29        2.280094   1.000000
   30        2.342697   1.000000
   31        2.493043   1.000000
   32        2.564857   1.000000
   33        2.638582   1.000000
   34        2.717687   1.000000
   35        2.798456   1.000000
   36        2.843572   1.000000
   37        2.988145   1.000000
   38        3.062477   1.000000
   39        3.120468   1.000000
   40        3.190022   1.000000
   41        3.240762   1.000000
   42        3.292886   1.000000
   43        3.360285   1.000000
   44        3.464878   1.000000
   45        3.545770   1.000000
   46        3.605915   1.000000
   47        3.724400   1.000000
   48        3.748909   1.000000
   49        3.847952   1.000000
   50        3.891386   1.000000
   51        3.934951   1.000000
   52        3.979865   1.000000
   53        4.057038   1.000000
   54        4.121472   1.000000
   55        4.238605   1.000000
   56        4.305021   1.000000
   57        4.378881   1.000000
   58        4.423661   1.000000
   59        4.486140   1.000000
   60        4.599646   1.000000
   61        4.675385   1.000000
   62        4.725661   1.000000
   63        4.812197   1.000000
   64        4.851288   1.000000
   65        4.913177   1.000000
   66        4.962803   1.000000
   67        5.011777   1.000000
   68        5.069686   1.000000
   69        5.099572   1.000000
   70        5.133901   1.000000
   71        5.205950   1.000000
   72        5.247450   1.000000
   73        5.314772   1.000000
   74        5.382396   1.000000
   75        5.424994   1.000000
   76        5.492678   1.000000
   77        5.511727   1.000000
   78        5.568182   1.000000
   79        5.612966   1.000000
   80        5.652617   1.000000
   81        5.789346   1.000000
   82        5.820132   1.000000
   83        5.904068   1.000000
   84        5.939234   1.000000
   85        6.019857   1.000001
   86        6.095899   1.000011
   87        6.163408   1.000083
   88        6.225949   1.000433
   89        6.254656   1.000859
   90        6.285478   1.001704
   91        6.358572   1.006870
   92        6.416983   1.016262
   93        6.426246   1.018215
   94        6.471332   1.028436
   95        6.565218   1.026405
   96        6.581738   1.016285
   97        6.667604   0.870574
   98        6.744572   0.597459
   99        6.877569   0.104207
  100        6.921113   0.018975
  101        6.939879  -0.003949
  102        7.044965  -0.032274
  103        7.113186  -0.017385
  104        7.169184  -0.007814
  105        7.305366  -0.000480
  106        7.466192  -0.000005
  107        7.603926  -0.000000
  108        7.683740  -0.000000
  109        7.838258  -0.000000
  110        7.970903  -0.000000
  111        8.016269  -0.000000
  112        8.055515  -0.000000
  113        8.172410  -0.000000
  114        8.260038  -0.000000
  115        8.340616  -0.000000
  116        8.421233  -0.000000
  117        8.537161  -0.000000
  118        8.586071  -0.000000
  119        8.745414  -0.000000
  120        8.816850  -0.000000
 
  0.4000000E+00 -0.2775558E-16  0.0000000E+00  0.1600000E-01
    1      -47.447453   1.000000
    2      -47.380925   1.000000
    3      -47.210850   1.000000
    4      -47.072133   1.000000
    5      -47.022926   1.000000
    6      -46.907842   1.000000
    7      -23.902169   1.000000
    8      -23.773581   1.000000
    9      -23.673980   1.000000
   10      -23.665910   1.000000
   11      -23.586955   1.000000
   12      -23.539349   1.000000
   13      -23.526748   1.000000
   14      -23.398575   1.000000
   15      -23.368588   1.000000
   16      -23.277377   1.000000
   17      -23.256534   1.000000
   18      -23.251356   1.000000
   19      -23.124379   1.000000
   20      -23.097550   1.000000
   21      -23.092931   1.000000
   22      -23.017188   1.000000
   23      -22.977747   1.000000
   24      -22.867188   1.000000
   25        0.578444   1.000000
   26        1.531808   1.000000
   27        2.016386   1.000000
   28        2.201185   1.000000
   29        2.410127   1.000000
   30        2.557607   1.000000
   31        2.651390   1.000000
   32        2.903402   1.000000
   33        2.938214   1.000000
   34        3.064272   1.000000
   35        3.125126   1.000000
   36        3.183851   1.000000
   37        3.236460   1.000000
   38        3.297715   1.000000
   39        3.394287   1.000000
   40        3.460602   1.000000
   41        3.472582   1.000000
   42        3.551541   1.000000
   43        3.631177   1.000000
   44        3.679519   1.000000
   45        3.763965   1.000000
   46        3.864307   1.000000
   47        3.905494   1.000000
   48        3.960998   1.000000
   49        4.028478   1.000000
   50        4.116110   1.000000
   51        4.176631   1.000000
   52        4.292456   1.000000
   53        4.350486   1.000000
   54        4.368785   1.000000
   55        4.443755   1.000000
   56        4.520778   1.000000
   57        4.570711   1.000000
   58        4.614776   1.000000
   59        4.647575   1.000000
   60        4.667119   1.000000
   61        4.727661   1.000000
   62        4.799356   1.000000
   63        4.831539   1.000000
   64        4.888840   1.000000
   65        4.930805   1.000000
   66        5.011147   1.000000
   67        5.082894   1.000000
   68        5.100256   1.000000
   69        5.162533   1.000000
   70        5.205458   1.000000
   71        5.295404   1.000000
   72        5.334827   1.000000
   73        5.378664   1.000000
   74        5.419963   1.000000
   75        5.465591   1.000000
   76        5.530456   1.000000
   77        5.584911   1.000000
   78        5.608775   1.000000
   79        5.662189   1.000000
   80        5.691337   1.000000
   81        5.733139   1.000000
   82        5.792890   1.000000
   83        5.870272   1.000000
   84        5.893363   1.000000
   85        5.942613   1.000000
   86        5.999101   1.000000
   87        6.041716   1.000002
   88        6.118271   1.000022
   89        6.165576   1.000088
   90        6.210073   1.000290
   91        6.233070   1.000515
   92        6.309268   1.002781
   93        6.334501   1.004503
   94        6.385010   1.010455
   95        6.418659   1.016607
   96        6.455470   1.024846
   97        6.524323   1.035449
   98        6.554306   1.030779
   99        6.614298   0.981229
  100        6.649435   0.916262
  101        6.706312   0.746966
  102        6.779934   0.448666
  103        6.835381   0.231258
  104        6.906909   0.041650
  105        6.953449  -0.016007
  106        7.032924  -0.034093
  107        7.103074  -0.019583
  108        7.172962  -0.007346
  109        7.324861  -0.000295
  110        7.426939  -0.000016
  111        7.558212  -0.000000
  112        7.657485  -0.000000
  113        7.707755  -0.000000
  114        7.754109  -0.000000
  115        7.844165  -0.000000
  116        8.020809  -0.000000
  117        8.099537  -0.000000
  118        8.277209  -0.000000
  119        8.297356  -0.000000
  120        8.427180  -0.000000
 
  0.0000000E+00  0.2000000E+00  0.1387779E-16  0.1600000E-01
    1      -47.457495   1.000000
    2      -47.382378   1.000000
    3      -47.212328   1.000000
    4      -47.072311   1.000000
    5      -47.023599   1.000000
    6      -46.896963   1.000000
    7      -24.054994   1.000000
    8      -23.890544   1.000000
    9      -23.744019   1.000000
   10      -23.676940   1.000000
   11      -23.598089   1.000000
   12      -23.536744   1.000000
   13      -23.506298   1.000000
   14      -23.385875   1.000000
   15      -23.363479   1.000000
   16      -23.261870   1.000000
   17      -23.249265   1.000000
   18      -23.236899   1.000000
   19      -23.106637   1.000000
   20      -23.079129   1.000000
   21      -23.049467   1.000000
   22      -22.970681   1.000000
   23      -22.872209   1.000000
   24      -22.679347   1.000000
   25       -0.386918   1.000000
   26        0.908725   1.000000
   27        1.218694   1.000000
   28        1.626791   1.000000
   29        2.007215   1.000000
   30        2.230897   1.000000
   31        2.302651   1.000000
   32        2.428505   1.000000
   33        2.504132   1.000000
   34        2.618397   1.000000
   35        2.639943   1.000000
   36        2.685175   1.000000
   37        2.822758   1.000000
   38        2.854418   1.000000
   39        2.889919   1.000000
   40        2.932164   1.000000
   41        3.049984   1.000000
   42        3.088471   1.000000
   43        3.307305   1.000000
   44        3.341090   1.000000
   45        3.477713   1.000000
   46        3.540426   1.000000
   47        3.590702   1.000000
   48        3.685475   1.000000
   49        3.755601   1.000000
   50        3.809086   1.000000
   51        3.838456   1.000000
   52        3.909879   1.000000
   53        3.968836   1.000000
   54        4.082114   1.000000
   55        4.126871   1.000000
   56        4.181753   1.000000
   57        4.308139   1.000000
   58        4.440121   1.000000
   59        4.456069   1.000000
   60        4.541195   1.000000
   61        4.609808   1.000000
   62        4.704641   1.000000
   63        4.780234   1.000000
   64        4.813687   1.000000
   65        4.886291   1.000000
   66        4.925659   1.000000
   67        4.971575   1.000000
   68        4.998073   1.000000
   69        5.049930   1.000000
   70        5.119476   1.000000
   71        5.171708   1.000000
   72        5.225273   1.000000
   73        5.270276   1.000000
   74        5.332300   1.000000
   75        5.426469   1.000000
   76        5.483893   1.000000
   77        5.548451   1.000000
   78        5.590748   1.000000
   79        5.667455   1.000000
   80        5.789560   1.000000
   81        5.836451   1.000000
   82        5.863652   1.000000
   83        5.964303   1.000000
   84        6.006511   1.000001
   85        6.073257   1.000005
   86        6.108281   1.000016
   87        6.168848   1.000096
   88        6.198417   1.000214
   89        6.219959   1.000373
   90        6.300776   1.002344
   91        6.314754   1.003099
   92        6.396112   1.012292
   93        6.447606   1.023026
   94        6.510969   1.034959
   95        6.528238   1.035341
   96        6.653038   0.907861
   97        6.728606   0.662273
   98        6.844181   0.201380
   99        6.995957  -0.034247
  100        7.154396  -0.009864
  101        7.236634  -0.002257
  102        7.365902  -0.000098
  103        7.415178  -0.000023
  104        7.593266  -0.000000
  105        7.682731  -0.000000
  106        7.740954  -0.000000
  107        7.839894  -0.000000
  108        7.933706  -0.000000
  109        8.069640  -0.000000
  110        8.157512  -0.000000
  111        8.230156  -0.000000
  112        8.344796  -0.000000
  113        8.475410  -0.000000
  114        8.608715  -0.000000
  115        8.668333  -0.000000
  116        8.738991  -0.000000
  117        8.868059  -0.000000
  118        8.901859  -0.000000
  119        8.957285  -0.000000
  120        9.028856  -0.000000
 
  0.2000000E+00  0.2000000E+00 -0.4857226E-16  0.1600000E-01
    1      -47.453715   1.000000
    2      -47.381842   1.000000
    3      -47.212150   1.000000
    4      -47.071834   1.000000
    5      -47.023334   1.000000
    6      -46.901091   1.000000
    7      -23.960664   1.000000
    8      -23.887276   1.000000
    9      -23.738098   1.000000
   10      -23.682738   1.000000
   11      -23.593848   1.000000
   12      -23.538106   1.000000
   13      -23.514522   1.000000
   14      -23.389899   1.000000
   15      -23.366129   1.000000
   16      -23.265637   1.000000
   17      -23.252792   1.000000
   18      -23.242738   1.000000
   19      -23.111472   1.000000
   20      -23.084221   1.000000
   21      -23.051433   1.000000
   22      -22.965297   1.000000
   23      -22.874169   1.000000
   24      -22.792948   1.000000
   25       -0.206421   1.000000
   26        1.061885   1.000000
   27        1.412756   1.000000
   28        2.013301   1.000000
   29        2.209034   1.000000
   30        2.364515   1.000000
   31        2.415696   1.000000
   32        2.496622   1.000000
   33        2.668463   1.000000
   34        2.731851   1.000000
   35        2.774529   1.000000
   36        2.836483   1.000000
   37        2.951153   1.000000
   38        3.048610   1.000000
   39        3.110193   1.000000
   40        3.123561   1.000000
   41        3.200442   1.000000
   42        3.306865   1.000000
   43        3.390594   1.000000
   44        3.475799   1.000000
   45        3.561708   1.000000
   46        3.651493   1.000000
   47        3.721714   1.000000
   48        3.773559   1.000000
   49        3.827865   1.000000
   50        3.856663   1.000000
   51        3.956861   1.000000
   52        3.981037   1.000000
   53        4.073562   1.000000
   54        4.135546   1.000000
   55        4.235806   1.000000
   56        4.341532   1.000000
   57        4.398038   1.000000
   58        4.467430   1.000000
   59        4.543793   1.000000
   60        4.586966   1.000000
   61        4.665100   1.000000
   62        4.712522   1.000000
   63        4.781316   1.000000
   64        4.851590   1.000000
   65        4.883594   1.000000
   66        4.928320   1.000000
   67        4.976750   1.000000
   68        5.016233   1.000000
   69        5.040647   1.000000
   70        5.094166   1.000000
   71        5.173463   1.000000
   72        5.212605   1.000000
   73        5.241915   1.000000
   74        5.332216   1.000000
   75        5.392478   1.000000
   76        5.452231   1.000000
   77        5.518449   1.000000
   78        5.631837   1.000000
   79        5.653916   1.000000
   80        5.681151   1.000000
   81        5.721905   1.000000
   82        5.804732   1.000000
   83        5.850780   1.000000
   84        5.971479   1.000000
   85        5.998721   1.000000
   86        6.043984   1.000002
   87        6.101065   1.000013
   88        6.181976   1.000138
   89        6.247623   1.000730
   90        6.291652   1.001941
   91        6.383007   1.010145
   92        6.399991   1.012980
   93        6.469241   1.027977
   94        6.526946   1.035391
   95        6.644731   0.926732
   96        6.709484   0.735427
   97        6.767742   0.500147
   98        6.861896   0.146479
   99        6.903862   0.047148
  100        6.968738  -0.025619
  101        6.996113  -0.034270
  102        7.082017  -0.024399
  103        7.156380  -0.009569
  104        7.218251  -0.003256
  105        7.345815  -0.000170
  106        7.412891  -0.000025
  107        7.500664  -0.000001
  108        7.545039  -0.000000
  109        7.882452  -0.000000
  110        7.935986  -0.000000
  111        8.060984  -0.000000
  112        8.252024  -0.000000
  113        8.441796  -0.000000
  114        8.476552  -0.000000
  115        8.638016  -0.000000
  116        8.719523  -0.000000
  117        8.821304  -0.000000
  118        8.924872  -0.000000
  119        8.963830  -0.000000
  120        9.012305  -0.000000
 
  0.4000000E+00  0.2000000E+00 -0.5551115E-16  0.1600000E-01
    1      -47.447460   1.000000
    2      -47.380943   1.000000
    3      -47.211234   1.000000
    4      -47.071725   1.000000
    5      -47.022936   1.000000
    6      -46.907847   1.000000
    7      -23.902760   1.000000
    8      -23.773784   1.000000
    9      -23.680853   1.000000
   10      -23.666197   1.000000
   11      -23.586737   1.000000
   12      -23.540158   1.000000
   13      -23.526740   1.000000
   14      -23.398576   1.000000
   15      -23.368543   1.000000
   16      -23.277282   1.000000
   17      -23.256566   1.000000
   18      -23.251159   1.000000
   19      -23.124342   1.000000
   20      -23.097494   1.000000
   21      -23.092827   1.000000
   22      -23.016371   1.000000
   23      -22.968631   1.000000
   24      -22.866663   1.000000
   25        0.500770   1.000000
   26        1.453716   1.000000
   27        1.878180   1.000000
   28        2.139245   1.000000
   29        2.282648   1.000000
   30        2.456210   1.000000
   31        2.647669   1.000000
   32        2.945615   1.000000
   33        3.051878   1.000000
   34        3.100409   1.000000
   35        3.155870   1.000000
   36        3.218072   1.000000
   37        3.308622   1.000000
   38        3.344584   1.000000
   39        3.423604   1.000000
   40        3.487677   1.000000
   41        3.549672   1.000000
   42        3.566218   1.000000
   43        3.592465   1.000000
   44        3.669842   1.000000
   45        3.751353   1.000000
   46        3.774924   1.000000
   47        3.885166   1.000000
   48        4.001528   1.000000
   49        4.022737   1.000000
   50        4.106331   1.000000
   51        4.151745   1.000000
   52        4.165576   1.000000
   53        4.232375   1.000000
   54        4.273798   1.000000
   55        4.337482   1.000000
   56        4.410871   1.000000
   57        4.517748   1.000000
   58        4.568011   1.000000
   59        4.644201   1.000000
   60        4.713917   1.000000
   61        4.734062   1.000000
   62        4.782438   1.000000
   63        4.869055   1.000000
   64        4.922289   1.000000
   65        4.958138   1.000000
   66        4.999798   1.000000
   67        5.046497   1.000000
   68        5.101150   1.000000
   69        5.174889   1.000000
   70        5.214469   1.000000
   71        5.257177   1.000000
   72        5.308195   1.000000
   73        5.358878   1.000000
   74        5.426229   1.000000
   75        5.503215   1.000000
   76        5.534760   1.000000
   77        5.561143   1.000000
   78        5.605887   1.000000
   79        5.643247   1.000000
   80        5.660139   1.000000
   81        5.751256   1.000000
   82        5.788222   1.000000
   83        5.895263   1.000000
   84        5.913441   1.000000
   85        5.974392   1.000000
   86        5.990966   1.000000
   87        6.063244   1.000004
   88        6.097452   1.000011
   89        6.109773   1.000017
   90        6.192960   1.000186
   91        6.233394   1.000519
   92        6.271696   1.001263
   93        6.312307   1.002953
   94        6.352522   1.006200
   95        6.394083   1.011942
   96        6.419976   1.016881
   97        6.476387   1.029521
   98        6.500304   1.033789
   99        6.583833   1.014666
  100        6.620406   0.972086
  101        6.672497   0.856863
  102        6.738419   0.622755
  103        6.875119   0.110410
  104        6.936905  -0.000820
  105        6.985655  -0.032090
  106        7.113656  -0.017285
  107        7.209725  -0.003833
  108        7.263174  -0.001283
  109        7.507813  -0.000001
  110        7.654297  -0.000000
  111        7.763770  -0.000000
  112        7.858674  -0.000000
  113        7.988041  -0.000000
  114        8.098040  -0.000000
  115        8.169863  -0.000000
  116        8.288529  -0.000000
  117        8.358244  -0.000000
  118        8.399699  -0.000000
  119        8.468362  -0.000000
  120        8.593281  -0.000000
 
 -0.4000000E+00  0.2000000E+00 -0.3908332E-16  0.1600000E-01
    1      -47.447452   1.000000
    2      -47.380925   1.000000
    3      -47.210844   1.000000
    4      -47.072139   1.000000
    5      -47.022926   1.000000
    6      -46.907842   1.000000
    7      -23.902161   1.000000
    8      -23.773581   1.000000
    9      -23.673925   1.000000
   10      -23.665911   1.000000
   11      -23.586965   1.000000
   12      -23.539326   1.000000
   13      -23.526753   1.000000
   14      -23.398679   1.000000
   15      -23.368603   1.000000
   16      -23.277357   1.000000
   17      -23.256457   1.000000
   18      -23.251323   1.000000
   19      -23.124381   1.000000
   20      -23.097537   1.000000
   21      -23.092923   1.000000
   22      -23.017193   1.000000
   23      -22.977870   1.000000
   24      -22.867198   1.000000
   25        0.807934   1.000000
   26        1.560484   1.000000
   27        1.706068   1.000000
   28        2.174504   1.000000
   29        2.277449   1.000000
   30        2.534128   1.000000
   31        2.726862   1.000000
   32        2.825985   1.000000
   33        3.009995   1.000000
   34        3.036598   1.000000
   35        3.090781   1.000000
   36        3.186127   1.000000
   37        3.261050   1.000000
   38        3.306030   1.000000
   39        3.365556   1.000000
   40        3.399382   1.000000
   41        3.495898   1.000000
   42        3.530360   1.000000
   43        3.618091   1.000000
   44        3.681237   1.000000
   45        3.759079   1.000000
   46        3.863261   1.000000
   47        3.917244   1.000000
   48        4.019243   1.000000
   49        4.106423   1.000000
   50        4.163171   1.000000
   51        4.186848   1.000000
   52        4.286550   1.000000
   53        4.378621   1.000000
   54        4.437863   1.000000
   55        4.505904   1.000000
   56        4.534153   1.000000
   57        4.572746   1.000000
   58        4.614233   1.000000
   59        4.651357   1.000000
   60        4.690408   1.000000
   61        4.717392   1.000000
   62        4.799205   1.000000
   63        4.835244   1.000000
   64        4.894688   1.000000
   65        4.962417   1.000000
   66        4.999029   1.000000
   67        5.066252   1.000000
   68        5.106343   1.000000
   69        5.140432   1.000000
   70        5.176384   1.000000
   71        5.223669   1.000000
   72        5.285852   1.000000
   73        5.338984   1.000000
   74        5.367602   1.000000
   75        5.429606   1.000000
   76        5.505748   1.000000
   77        5.545475   1.000000
   78        5.618257   1.000000
   79        5.641222   1.000000
   80        5.689118   1.000000
   81        5.757484   1.000000
   82        5.812633   1.000000
   83        5.889621   1.000000
   84        5.945269   1.000000
   85        5.970039   1.000000
   86        6.004567   1.000000
   87        6.049935   1.000002
   88        6.075495   1.000006
   89        6.134662   1.000036
   90        6.188710   1.000166
   91        6.243745   1.000666
   92        6.280349   1.001526
   93        6.306651   1.002639
   94        6.372559   1.008630
   95        6.415604   1.015980
   96        6.454955   1.024727
   97        6.548826   1.032372
   98        6.582098   1.016012
   99        6.649632   0.915810
  100        6.668953   0.866853
  101        6.716544   0.709100
  102        6.757490   0.543466
  103        6.801476   0.359628
  104        6.885817   0.084433
  105        6.989709  -0.033084
  106        7.090688  -0.022394
  107        7.159403  -0.009131
  108        7.198034  -0.004758
  109        7.274678  -0.000991
  110        7.335854  -0.000222
  111        7.498631  -0.000002
  112        7.708217  -0.000000
  113        7.776141  -0.000000
  114        7.867707  -0.000000
  115        8.036214  -0.000000
  116        8.164072  -0.000000
  117        8.219498  -0.000000
  118        8.293828  -0.000000
  119        8.356420  -0.000000
  120        8.438511  -0.000000
 
 -0.2000000E+00  0.2000000E+00  0.1006140E-15  0.1600000E-01
    1      -47.453703   1.000000
    2      -47.381813   1.000000
    3      -47.211521   1.000000
    4      -47.072500   1.000000
    5      -47.023318   1.000000
    6      -46.901083   1.000000
    7      -23.960641   1.000000
    8      -23.886248   1.000000
    9      -23.737877   1.000000
   10      -23.670957   1.000000
   11      -23.594177   1.000000
   12      -23.536962   1.000000
   13      -23.514535   1.000000
   14      -23.390068   1.000000
   15      -23.366230   1.000000
   16      -23.265565   1.000000
   17      -23.252696   1.000000
   18      -23.243063   1.000000
   19      -23.111526   1.000000
   20      -23.084518   1.000000
   21      -23.051637   1.000000
   22      -22.980901   1.000000
   23      -22.875329   1.000000
   24      -22.792982   1.000000
   25        0.032583   1.000000
   26        1.160796   1.000000
   27        1.506731   1.000000
   28        1.709217   1.000000
   29        2.131201   1.000000
   30        2.440962   1.000000
   31        2.570287   1.000000
   32        2.668620   1.000000
   33        2.709580   1.000000
   34        2.776390   1.000000
   35        2.830665   1.000000
   36        2.866873   1.000000
   37        2.940181   1.000000
   38        3.015025   1.000000
   39        3.056460   1.000000
   40        3.120670   1.000000
   41        3.186296   1.000000
   42        3.307765   1.000000
   43        3.326353   1.000000
   44        3.395016   1.000000
   45        3.546080   1.000000
   46        3.627847   1.000000
   47        3.710698   1.000000