 running on   32 total cores
 distrk:  each k-point on   32 cores,    1 groups
 distr:  one band on    4 cores,    8 groups
 using from now: INCAR     
 vasp.5.4.4.18Apr17-6-g9f103f2a35 (build Aug 09 2018 16:20:53) complex          
  
 POSCAR found :  5 types and      29 ions
 scaLAPACK will be used

 ----------------------------------------------------------------------------- 
|                                                                             |
|  ADVICE TO THIS USER RUNNING 'VASP/VAMP'   (HEAR YOUR MASTER'S VOICE ...):  |
|                                                                             |
|      You enforced a specific xc-type in the INCAR file,                     |
|      a different type was found on the POTCAR file                          |
|          I HOPE YOU KNOW, WHAT YOU ARE  DOING                               |
|                                                                             |
 ----------------------------------------------------------------------------- 

 LDA part: xc-table for Pade appr. of Perdew
 POSCAR found :  5 types and      29 ions
 POSCAR, INCAR and KPOINTS ok, starting setup
 FFT: planning ...
 WAVECAR not read
 entering main loop
       N       E                     dE             d eps       ncg     rms          rms(c)
DAV:   1     0.216811215122E+04    0.21681E+04   -0.91657E+04 15120   0.176E+03
DAV:   2     0.757880366064E+02   -0.20923E+04   -0.20309E+04 15184   0.522E+02
DAV:   3    -0.301159708389E+03   -0.37695E+03   -0.35916E+03 26256   0.184E+02
DAV:   4    -0.347788930643E+03   -0.46629E+02   -0.43199E+02 23304   0.606E+01
DAV:   5    -0.352956197655E+03   -0.51673E+01   -0.50370E+01 28736   0.220E+01    0.748E+01
DAV:   6    -0.342343956368E+03    0.10612E+02   -0.11240E+02 20656   0.304E+01    0.373E+01
DAV:   7    -0.358956485512E+03   -0.16613E+02   -0.43242E+02 21768   0.868E+01    0.278E+01
DAV:   8    -0.347675486050E+03    0.11281E+02   -0.13373E+02 22560   0.393E+01    0.204E+01
DAV:   9    -0.335415938225E+03    0.12260E+02   -0.22052E+01 21088   0.154E+01    0.134E+01
DAV:  10    -0.332604204455E+03    0.28117E+01   -0.92464E+00 22688   0.879E+00    0.985E+00
DAV:  11    -0.331242727043E+03    0.13615E+01   -0.38141E+00 22328   0.551E+00    0.654E+00
DAV:  12    -0.330680897582E+03    0.56183E+00   -0.22176E+00 21704   0.454E+00    0.306E+00
DAV:  13    -0.330624204207E+03    0.56693E-01   -0.84808E-01 20992   0.298E+00    0.156E+00
DAV:  14    -0.330589779730E+03    0.34424E-01   -0.45315E-01 21352   0.218E+00    0.944E-01
DAV:  15    -0.330606549222E+03   -0.16769E-01   -0.32285E-01 23008   0.164E+00    0.130E+00
DAV:  16    -0.330592907802E+03    0.13641E-01   -0.85689E-02 22432   0.864E-01    0.764E-01
DAV:  17    -0.330586218259E+03    0.66895E-02   -0.22994E-02 22368   0.464E-01    0.442E-01
DAV:  18    -0.330584055790E+03    0.21625E-02   -0.18673E-02 21592   0.412E-01    0.175E-01
DAV:  19    -0.330584014967E+03    0.40823E-04   -0.62206E-03 21248   0.229E-01    0.142E-01
DAV:  20    -0.330583781083E+03    0.23388E-03   -0.17366E-03 19304   0.121E-01    0.715E-02
DAV:  21    -0.330583714643E+03    0.66440E-04   -0.67304E-04 16808   0.852E-02
   1 F= -.33058371E+03 E0= -.33058129E+03  d E =-.330584E+03
 curvature:   0.00 expect dE= 0.000E+00 dE for cont linesearch  0.000E+00
 trial: gam= 0.00000 g(F)=  0.742E+00 g(S)=  0.582E+00 ort = 0.000E+00 (trialstep = 0.100E+01)
 search vector abs. value=  0.132E+01
 bond charge predicted
       N       E                     dE             d eps       ncg     rms          rms(c)
DAV:   1    -0.332954505783E+03   -0.23707E+01   -0.17611E+02 19504   0.578E+01    0.165E+01
DAV:   2    -0.333213531196E+03   -0.25903E+00   -0.35531E+01 23640   0.261E+01    0.108E+01
DAV:   3    -0.331629289760E+03    0.15842E+01   -0.20790E+01 22280   0.134E+01    0.809E+00
DAV:   4    -0.331259410441E+03    0.36988E+00   -0.12170E+01 23200   0.116E+01    0.538E+00
DAV:   5    -0.330860363793E+03    0.39905E+00   -0.45762E+00 22448   0.717E+00    0.310E+00
DAV:   6    -0.330708276770E+03    0.15209E+00   -0.12766E+00 23960   0.357E+00    0.198E+00
DAV:   7    -0.330731265831E+03   -0.22989E-01   -0.55659E-01 24864   0.219E+00    0.165E+00
DAV:   8    -0.330713949019E+03    0.17317E-01   -0.21850E-01 22880   0.151E+00    0.106E+00
DAV:   9    -0.330721003250E+03   -0.70542E-02   -0.87805E-02 22648   0.893E-01    0.736E-01
DAV:  10    -0.330726462848E+03   -0.54596E-02   -0.65234E-02 23312   0.751E-01    0.509E-01
DAV:  11    -0.330727633318E+03   -0.11705E-02   -0.38705E-02 23336   0.565E-01    0.299E-01
DAV:  12    -0.330727441257E+03    0.19206E-03   -0.13228E-02 22760   0.336E-01    0.145E-01
DAV:  13    -0.330727592387E+03   -0.15113E-03   -0.42925E-03 22160   0.169E-01    0.936E-02
DAV:  14    -0.330727608559E+03   -0.16172E-04   -0.15410E-03 19840   0.122E-01    0.647E-02
DAV:  15    -0.330727551708E+03    0.56852E-04   -0.60209E-04 15832   0.834E-02
   2 F= -.33072755E+03 E0= -.33072566E+03  d E =-.143837E+00
 trial-energy change:   -0.143837  1 .order   -0.111466   -1.324210    1.101277
 step:   0.5656(harm=  0.5460)  dis= 0.03255  next Energy=  -330.964079 (dE=-0.380E+00)
 bond charge predicted
       N       E                     dE             d eps       ncg     rms          rms(c)
DAV:   1    -0.331370617801E+03   -0.64301E+00   -0.33565E+01 18936   0.252E+01    0.719E+00
DAV:   2    -0.331413447292E+03   -0.42829E-01   -0.61253E+00 25584   0.107E+01    0.546E+00
DAV:   3    -0.331240432555E+03    0.17301E+00   -0.59236E+00 22896   0.778E+00    0.389E+00
DAV:   4    -0.331064394125E+03    0.17604E+00   -0.17718E+00 24104   0.430E+00    0.222E+00
DAV:   5    -0.330987243972E+03    0.77150E-01   -0.89342E-01 22424   0.306E+00    0.136E+00
DAV:   6    -0.330961704630E+03    0.25539E-01   -0.30193E-01 23200   0.178E+00    0.848E-01
DAV:   7    -0.330964135136E+03   -0.24305E-02   -0.11286E-01 24336   0.979E-01    0.702E-01
DAV:   8    -0.330961187839E+03    0.29473E-02   -0.40837E-02 22440   0.638E-01    0.456E-01
DAV:   9    -0.330961915341E+03   -0.72750E-03   -0.15912E-02 22352   0.384E-01    0.331E-01
DAV:  10    -0.330963503753E+03   -0.15884E-02   -0.14712E-02 22536   0.347E-01    0.271E-01
DAV:  11    -0.330963348469E+03    0.15528E-03   -0.95372E-03 22816   0.276E-01    0.142E-01
DAV:  12    -0.330963305141E+03    0.43327E-04   -0.27306E-03 22344   0.144E-01    0.679E-02
DAV:  13    -0.330963305867E+03   -0.72596E-06   -0.67887E-04 16832   0.757E-02
   3 F= -.33096331E+03 E0= -.33096122E+03  d E =-.379591E+00
 curvature:  -0.27 expect dE=-0.210E+00 dE for cont linesearch -0.729E-04
 trial: gam= 0.56902 g(F)=  0.359E+00 g(S)=  0.413E+00 ort = 0.188E-01 (trialstep = 0.913E+00)
 search vector abs. value=  0.122E+01
 bond charge predicted
       N       E                     dE             d eps       ncg     rms          rms(c)
DAV:   1    -0.330978738317E+03   -0.15433E-01   -0.11449E+02 15120   0.354E+01    0.442E+00
DAV:   2    -0.331487327841E+03   -0.50859E+00   -0.81960E+00 23096   0.111E+01    0.370E+00
DAV:   3    -0.331470344907E+03    0.16983E-01   -0.29095E+00 22424   0.553E+00    0.291E+00
DAV:   4    -0.331364869075E+03    0.10548E+00   -0.67362E-01 22848   0.281E+00    0.176E+00
DAV:   5    -0.331348621256E+03    0.16248E-01   -0.37440E-01 22664   0.186E+00    0.134E+00
DAV:   6    -0.331332620248E+03    0.16001E-01   -0.18068E-01 23280   0.143E+00    0.697E-01
DAV:   7    -0.331328108509E+03    0.45117E-02   -0.61319E-02 24696   0.933E-01    0.532E-01
DAV:   8    -0.331326715354E+03    0.13932E-02   -0.39769E-02 24112   0.569E-01    0.412E-01
DAV:   9    -0.331326034733E+03    0.68062E-03   -0.11947E-02 20976   0.307E-01    0.280E-01
DAV:  10    -0.331326196311E+03   -0.16158E-03   -0.44582E-03 20880   0.210E-01    0.189E-01
DAV:  11    -0.331326508714E+03   -0.31240E-03   -0.58103E-03 21824   0.228E-01    0.140E-01
DAV:  12    -0.331326174696E+03    0.33402E-03   -0.22507E-03 19800   0.151E-01    0.440E-02
DAV:  13    -0.331326142811E+03    0.31885E-04   -0.30199E-04 11928   0.679E-02
   4 F= -.33132614E+03 E0= -.33132425E+03  d E =-.362837E+00
 trial-energy change:   -0.362837  1 .order   -0.365557   -0.715011   -0.016103
 step:   0.9347(harm=  0.9342)  dis= 0.06207  next Energy=  -331.326333 (dE=-0.363E+00)
 bond charge predicted
       N       E                     dE             d eps       ncg     rms          rms(c)
DAV:   1    -0.331326170301E+03    0.43956E-05   -0.63899E-02 16080   0.831E-01    0.102E-01
DAV:   2    -0.331326416576E+03   -0.24628E-03   -0.42282E-03 22960   0.260E-01    0.758E-02
DAV:   3    -0.331326410879E+03    0.56971E-05   -0.12375E-03 17664   0.113E-01    0.592E-02
DAV:   4    -0.331326358768E+03    0.52112E-04   -0.34590E-04 13032   0.738E-02
   5 F= -.33132636E+03 E0= -.33132447E+03  d E =-.363053E+00
 curvature:  -0.73 expect dE=-0.599E-01 dE for cont linesearch -0.575E-05
 trial: gam= 0.02305 g(F)=  0.736E-01 g(S)=  0.866E-02 ort = 0.310E-02 (trialstep = 0.917E+00)
 search vector abs. value=  0.830E-01
 bond charge predicted
       N       E                     dE             d eps       ncg     rms          rms(c)
DAV:   1    -0.331352372024E+03   -0.25961E-01   -0.91925E+00 15152   0.112E+01    0.193E+00
DAV:   2    -0.331402344666E+03   -0.49973E-01   -0.92408E-01 22200   0.372E+00    0.141E+00
DAV:   3    -0.331393402409E+03    0.89423E-02   -0.45913E-01 22288   0.216E+00    0.116E+00
DAV:   4    -0.331380326077E+03    0.13076E-01   -0.16029E-01 22864   0.130E+00    0.705E-01
DAV:   5    -0.331371308528E+03    0.90175E-02   -0.79848E-02 22504   0.896E-01    0.314E-01
DAV:   6    -0.331369955718E+03    0.13528E-02   -0.17350E-02 25064   0.422E-01    0.170E-01
DAV:   7    -0.331369856505E+03    0.99213E-04   -0.53259E-03 23016   0.230E-01    0.131E-01
DAV:   8    -0.331369815694E+03    0.40811E-04   -0.17504E-03 20112   0.129E-01    0.101E-01
DAV:   9    -0.331369841731E+03   -0.26037E-04   -0.82294E-04 17040   0.902E-02
   6 F= -.33136984E+03 E0= -.33136789E+03  d E =-.434830E-01
 trial-energy change:   -0.043483  1 .order   -0.044785   -0.075524   -0.014046
 step:   1.1675(harm=  1.1270)  dis= 0.02305  next Energy=  -331.371729 (dE=-0.454E-01)
 bond charge predicted
       N       E                     dE             d eps       ncg     rms          rms(c)
DAV:   1    -0.331370346057E+03   -0.53036E-03   -0.68962E-01 15872   0.304E+00    0.518E-01
DAV:   2    -0.331373781704E+03   -0.34356E-02   -0.63789E-02 21976   0.990E-01    0.401E-01
DAV:   3    -0.331372635375E+03    0.11463E-02   -0.34450E-02 22800   0.581E-01    0.303E-01
DAV:   4    -0.331371916842E+03    0.71853E-03   -0.12053E-02 22216   0.355E-01    0.198E-01
DAV:   5    -0.331371217424E+03    0.69942E-03   -0.61083E-03 22408   0.251E-01    0.879E-02
DAV:   6    -0.331371130202E+03    0.87222E-04   -0.11997E-03 20224   0.112E-01    0.525E-02
DAV:   7    -0.331371123974E+03    0.62281E-05   -0.30993E-04 11968   0.722E-02
   7 F= -.33137112E+03 E0= -.33136914E+03  d E =-.447652E-01
 curvature:  -0.55 expect dE=-0.632E-01 dE for cont linesearch -0.968E-04
 trial: gam= 1.45409 g(F)=  0.176E-01 g(S)=  0.980E-01 ort =-0.383E-02 (trialstep = 0.287E+00)
 search vector abs. value=  0.280E+00
 bond charge predicted
       N       E                     dE             d eps       ncg     rms          rms(c)
DAV:   1    -0.331394824937E+03   -0.23695E-01   -0.28252E+00 15928   0.625E+00    0.107E+00
DAV:   2    -0.331403384182E+03   -0.85592E-02   -0.24899E-01 21648   0.192E+00    0.695E-01
DAV:   3    -0.331404660411E+03   -0.12762E-02   -0.12321E-01 22648   0.117E+00    0.692E-01
DAV:   4    -0.331397295623E+03    0.73648E-02   -0.54157E-02 23064   0.755E-01    0.317E-01
DAV:   5    -0.331396009216E+03    0.12864E-02   -0.20772E-02 22608   0.453E-01    0.207E-01
DAV:   6    -0.331395382979E+03    0.62624E-03   -0.83692E-03 23168   0.271E-01    0.102E-01
DAV:   7    -0.331395374111E+03    0.88684E-05   -0.21557E-03 20728   0.143E-01    0.811E-02
DAV:   8    -0.331395320887E+03    0.53224E-04   -0.59545E-04 15296   0.871E-02
   8 F= -.33139532E+03 E0= -.33139338E+03  d E =-.241969E-01
 trial-energy change:   -0.024197  1 .order   -0.024252   -0.031558   -0.016946
 step:   0.6197(harm=  0.6197)  dis= 0.02525  next Energy=  -331.405203 (dE=-0.341E-01)
 bond charge predicted
       N       E                     dE             d eps       ncg     rms          rms(c)
DAV:   1    -0.331402354940E+03   -0.69808E-02   -0.38026E+00 15928   0.725E+00    0.122E+00
DAV:   2    -0.331414098580E+03   -0.11744E-01   -0.32786E-01 21304   0.223E+00    0.783E-01
DAV:   3    -0.331415837526E+03   -0.17389E-02   -0.16069E-01 22648   0.135E+00    0.776E-01
DAV:   4    -0.331406217985E+03    0.96195E-02   -0.68985E-02 23104   0.858E-01    0.343E-01
DAV:   5    -0.331404783866E+03    0.14341E-02   -0.25372E-02 22728   0.504E-01    0.232E-01
DAV:   6    -0.331404082803E+03    0.70106E-03   -0.10317E-02 23584   0.297E-01    0.121E-01
DAV:   7    -0.331404094815E+03   -0.12012E-04   -0.24994E-03 21248   0.152E-01    0.975E-02
DAV:   8    -0.331404068470E+03    0.26346E-04   -0.68223E-04 16424   0.903E-02
   9 F= -.33140407E+03 E0= -.33140223E+03  d E =-.329445E-01
 curvature:  -0.79 expect dE=-0.199E-01 dE for cont linesearch -0.205E-04
 trial: gam= 0.13496 g(F)=  0.250E-01 g(S)=  0.260E-03 ort =-0.270E-02 (trialstep = 0.353E+00)
 search vector abs. value=  0.296E-01
 bond charge predicted
       N       E                     dE             d eps       ncg     rms          rms(c)
DAV:   1    -0.331410255854E+03   -0.61610E-02   -0.44423E-01 16488   0.224E+00    0.210E-01
DAV:   2    -0.331412258327E+03   -0.20025E-02   -0.23460E-02 23912   0.649E-01    0.188E-01
DAV:   3    -0.331412195703E+03    0.62624E-04   -0.58157E-03 23568   0.251E-01    0.143E-01
DAV:   4    -0.331411971144E+03    0.22456E-03   -0.16552E-03 19784   0.132E-01    0.859E-02
DAV:   5    -0.331412000789E+03   -0.29645E-04   -0.97745E-04 17464   0.996E-02
  10 F= -.33141200E+03 E0= -.33141027E+03  d E =-.793232E-02
 ZBRENT: can't locate minimum, use default step
 trial-energy change:   -0.007932  1 .order   -0.007913   -0.008786   -0.007040
 step:   1.4139(harm=  1.7786)  dis= 0.01968  next Energy=  -331.426174 (dE=-0.221E-01)
 bond charge predicted
       N       E                     dE             d eps       ncg     rms          rms(c)
DAV:   1    -0.331409754269E+03    0.22169E-02   -0.39867E+00 16600   0.671E+00    0.609E-01
DAV:   2    -0.331426980490E+03   -0.17226E-01   -0.20856E-01 24280   0.192E+00    0.581E-01
DAV:   3    -0.331426093329E+03    0.88716E-03   -0.48475E-02 24344   0.696E-01    0.439E-01
DAV:   4    -0.331424370943E+03    0.17224E-02   -0.12132E-02 22952   0.358E-01    0.291E-01
DAV:   5    -0.331424607207E+03   -0.23626E-03   -0.89545E-03 22280   0.290E-01    0.243E-01
DAV:   6    -0.331423768780E+03    0.83843E-03   -0.67022E-03 22104   0.256E-01    0.931E-02
DAV:   7    -0.331423681516E+03    0.87264E-04   -0.13770E-03 20184   0.130E-01    0.623E-02
DAV:   8    -0.331423657458E+03    0.24058E-04   -0.54566E-04 15232   0.825E-02
  11 F= -.33142366E+03 E0= -.33142216E+03  d E =-.195890E-01
 curvature:  -0.99 expect dE=-0.143E-01 dE for cont linesearch -0.263E-03
 trial: gam= 0.43164 g(F)=  0.360E-02 g(S)=  0.108E-01 ort = 0.281E-02 (trialstep = 0.566E+00)
 search vector abs. value=  0.223E-01
 bond charge predicted
       N       E                     dE             d eps       ncg     rms          rms(c)
DAV:   1    -0.331437409180E+03   -0.13728E-01   -0.95063E-01 18776   0.429E+00    0.116E+00
DAV:   2    -0.331439079963E+03   -0.16708E-02   -0.19069E-01 25392   0.185E+00    0.814E-01
DAV:   3    -0.331433995205E+03    0.50848E-02   -0.15204E-01 22512   0.119E+00    0.601E-01
DAV:   4    -0.331429274281E+03    0.47209E-02   -0.50166E-02 23592   0.704E-01    0.319E-01
DAV:   5    -0.331428126873E+03    0.11474E-02   -0.21607E-02 22560   0.459E-01    0.237E-01
DAV:   6    -0.331427250229E+03    0.87664E-03   -0.62911E-03 22976   0.263E-01    0.113E-01
DAV:   7    -0.331427324827E+03   -0.74598E-04   -0.16732E-03 21608   0.130E-01    0.929E-02
DAV:   8    -0.331427305278E+03    0.19548E-04   -0.76272E-04 16368   0.950E-02
  12 F= -.33142731E+03 E0= -.33142592E+03  d E =-.364782E-02
 trial-energy change:   -0.003648  1 .order   -0.003847   -0.008832    0.001138
 step:   0.5010(harm=  0.5010)  dis= 0.00473  next Energy=  -331.427570 (dE=-0.391E-02)
 bond charge predicted
       N       E                     dE             d eps       ncg     rms          rms(c)
DAV:   1    -0.331427548895E+03   -0.22407E-03   -0.12381E-02 18976   0.491E-01    0.151E-01
DAV:   2    -0.331427739634E+03   -0.19074E-03   -0.40631E-03 24384   0.242E-01    0.128E-01
DAV:   3    -0.331427555671E+03    0.18396E-03   -0.29834E-03 19560   0.166E-01    0.884E-02
DAV:   4    -0.331427501962E+03    0.53709E-04   -0.76203E-04 15912   0.946E-02
  13 F= -.33142750E+03 E0= -.33142610E+03  d E =-.384450E-02
 curvature:  -0.36 expect dE=-0.227E-02 dE for cont linesearch -0.344E-04
 trial: gam= 0.64689 g(F)=  0.280E-02 g(S)=  0.354E-02 ort =-0.146E-02 (trialstep = 0.553E+00)
 search vector abs. value=  0.138E-01
 bond charge predicted
       N       E                     dE             d eps       ncg     rms          rms(c)
DAV:   1    -0.331427869306E+03   -0.31363E-03   -0.50316E-01 16616   0.240E+00    0.158E-01
DAV:   2    -0.331430212824E+03   -0.23435E-02   -0.26543E-02 24040   0.701E-01    0.151E-01
DAV:   3    -0.331430176032E+03    0.36792E-04   -0.47930E-03 24120   0.216E-01    0.117E-01
DAV:   4    -0.331429984458E+03    0.19157E-03   -0.80166E-04 16120   0.101E-01    0.666E-02
DAV:   5    -0.331429971046E+03    0.13413E-04   -0.27516E-04 11936   0.728E-02
  14 F= -.33142997E+03 E0= -.33142873E+03  d E =-.246908E-02
 trial-energy change:   -0.002469  1 .order   -0.002606   -0.002981   -0.002230
 step:   2.1944(harm=  2.1944)  dis= 0.01944  next Energy=  -331.433420 (dE=-0.592E-02)
 bond charge predicted
       N       E                     dE             d eps       ncg     rms          rms(c)
DAV:   1    -0.331412303330E+03    0.17681E-01   -0.44054E+00 16152   0.712E+00    0.476E-01
DAV:   2    -0.331433452156E+03   -0.21149E-01   -0.24510E-01 24240   0.212E+00    0.358E-01
DAV:   3    -0.331434096418E+03   -0.64426E-03   -0.24835E-02 24344   0.516E-01    0.329E-01
DAV:   4    -0.331432698106E+03    0.13983E-02   -0.81867E-03 21752   0.293E-01    0.200E-01
DAV:   5    -0.331432749172E+03   -0.51067E-04   -0.43839E-03 22080   0.215E-01    0.173E-01
DAV:   6    -0.331432268712E+03    0.48046E-03   -0.42371E-03 21536   0.199E-01    0.774E-02
DAV:   7    -0.331432184302E+03    0.84410E-04   -0.99198E-04 18072   0.104E-01
  15 F= -.33143218E+03 E0= -.33143134E+03  d E =-.468234E-02
 curvature:  -2.81 expect dE=-0.265E-01 dE for cont linesearch -0.170E-03
 trial: gam= 0.74360 g(F)=  0.312E-02 g(S)=  0.633E-02 ort =-0.915E-03 (trialstep = 0.773E+00)
 search vector abs. value=  0.157E-01
 bond charge predicted
       N       E                     dE             d eps       ncg     rms          rms(c)
DAV:   1    -0.331444201833E+03   -0.11933E-01   -0.11917E+00 18048   0.473E+00    0.126E+00
DAV:   2    -0.331444346903E+03   -0.14507E-03   -0.20727E-01 24872   0.194E+00    0.806E-01
DAV:   3    -0.331440610769E+03    0.37361E-02   -0.15717E-01 22480   0.124E+00    0.640E-01
DAV:   4    -0.331434223907E+03    0.63869E-02   -0.53163E-02 23384   0.761E-01    0.275E-01
DAV:   5    -0.331433405336E+03    0.81857E-03   -0.15039E-02 22768   0.424E-01    0.224E-01
DAV:   6    -0.331432833739E+03    0.57160E-03   -0.80021E-03 22424   0.273E-01    0.138E-01
DAV:   7    -0.331432867510E+03   -0.33772E-04   -0.29866E-03 21064   0.153E-01    0.106E-01
DAV:   8    -0.331432833524E+03    0.33986E-04   -0.97062E-04 17888   0.936E-02
  16 F= -.33143283E+03 E0= -.33143200E+03  d E =-.649222E-03
 trial-energy change:   -0.000649  1 .order   -0.001080   -0.006781    0.004622
 step:   0.4164(harm=  0.4599)  dis= 0.00328  next Energy=  -331.433943 (dE=-0.176E-02)
 bond charge predicted
       N       E                     dE             d eps       ncg     rms          rms(c)
DAV:   1    -0.331436498546E+03   -0.36310E-02   -0.25318E-01 18008   0.218E+00    0.600E-01
DAV:   2    -0.331437149027E+03   -0.65048E-03   -0.49257E-02 25192   0.917E-01    0.412E-01
DAV:   3    -0.331435987574E+03    0.11615E-02   -0.39197E-02 22480   0.616E-01    0.324E-01
DAV:   4    -0.331434684898E+03    0.13027E-02   -0.13219E-02 22904   0.367E-01    0.166E-01
DAV:   5    -0.331434233695E+03    0.45120E-03   -0.48707E-03 21128   0.234E-01    0.101E-01
DAV:   6    -0.331434081849E+03    0.15185E-03   -0.18781E-03 20112   0.141E-01    0.585E-02
DAV:   7    -0.331434084635E+03   -0.27854E-05   -0.84472E-04 17816   0.853E-02
  17 F= -.33143408E+03 E0= -.33143321E+03  d E =-.190033E-02
 curvature:  -0.40 expect dE=-0.122E-02 dE for cont linesearch -0.349E-05
 trial: gam= 0.20956 g(F)=  0.237E-02 g(S)=  0.639E-03 ort = 0.369E-03 (trialstep = 0.702E+00)
 search vector abs. value=  0.385E-02
 bond charge predicted
       N       E                     dE             d eps       ncg     rms          rms(c)
DAV:   1    -0.331435058684E+03   -0.97683E-03   -0.22872E-01 16584   0.153E+00    0.165E-01
DAV:   2    -0.331436255903E+03   -0.11972E-02   -0.14092E-02 23560   0.483E-01    0.198E-01
DAV:   3    -0.331435781844E+03    0.47406E-03   -0.56835E-03 20856   0.229E-01    0.957E-02
DAV:   4    -0.331435698097E+03    0.83747E-04   -0.70465E-04 15624   0.105E-01
  18 F= -.33143570E+03 E0= -.33143478E+03  d E =-.161346E-02
 trial-energy change:   -0.001613  1 .order   -0.001718   -0.002167   -0.001269
 step:   1.6930(harm=  1.6930)  dis= 0.00519  next Energy=  -331.436698 (dE=-0.261E-02)
 bond charge predicted
       N       E                     dE             d eps       ncg     rms          rms(c)
DAV:   1    -0.331434914739E+03    0.86710E-03   -0.45310E-01 16584   0.215E+00    0.234E-01
DAV:   2    -0.331436873404E+03   -0.19587E-02   -0.25619E-02 23992   0.650E-01    0.261E-01
DAV:   3    -0.331436276673E+03    0.59673E-03   -0.96044E-03 22984   0.293E-01    0.156E-01
DAV:   4    -0.331436075999E+03    0.20067E-03   -0.15825E-03 19952   0.142E-01    0.974E-02
DAV:   5    -0.331436058054E+03    0.17945E-04   -0.11196E-03 17632   0.117E-01    0.754E-02
DAV:   6    -0.331435991974E+03    0.66080E-04   -0.74961E-04 16336   0.984E-02
  19 F= -.33143599E+03 E0= -.33143496E+03  d E =-.190734E-02
 curvature:  -1.06 expect dE=-0.163E-02 dE for cont linesearch -0.165E-03
 trial: gam= 0.00000 g(F)=  0.106E-02 g(S)=  0.488E-03 ort =-0.777E-03 (trialstep = 0.900E+00)
 search vector abs. value=  0.155E-02
 bond charge predicted
       N       E                     dE             d eps       ncg     rms          rms(c)
DAV:   1    -0.331437424612E+03   -0.13666E-02   -0.16946E-01 16000   0.167E+00    0.426E-01
DAV:   2    -0.331437981898E+03   -0.55729E-03   -0.26787E-02 23464   0.677E-01    0.304E-01
DAV:   3    -0.331437319975E+03    0.66192E-03   -0.20439E-02 21776   0.441E-01    0.232E-01
DAV:   4    -0.331436698586E+03    0.62139E-03   -0.73072E-03 22536   0.276E-01    0.129E-01
DAV:   5    -0.331436410357E+03    0.28823E-03   -0.28354E-03 20048   0.182E-01    0.708E-02
DAV:   6    -0.331436328944E+03    0.81414E-04   -0.78915E-04 16528   0.983E-02
  20 F= -.33143633E+03 E0= -.33143542E+03  d E =-.336970E-03
 trial-energy change:   -0.000337  1 .order   -0.000434   -0.001392    0.000524
 step:   0.6538(harm=  0.6538)  dis= 0.00159  next Energy=  -331.436497 (dE=-0.505E-03)
 bond charge predicted
       N       E                     dE             d eps       ncg     rms          rms(c)
DAV:   1    -0.331436532406E+03   -0.12205E-03   -0.13244E-02 16856   0.463E-01    0.127E-01
DAV:   2    -0.331436674881E+03   -0.14247E-03   -0.30979E-03 23816   0.227E-01    0.112E-01
DAV:   3    -0.331436526298E+03    0.14858E-03   -0.20989E-03 19280   0.146E-01    0.735E-02
DAV:   4    -0.331436488055E+03    0.38243E-04   -0.64552E-04 15416   0.850E-02
  21 F= -.33143649E+03 E0= -.33143557E+03  d E =-.496081E-03
 curvature:  -0.33 expect dE=-0.564E-03 dE for cont linesearch -0.199E-04
 trial: gam= 0.00000 g(F)=  0.341E-03 g(S)=  0.138E-02 ort =-0.307E-03 (trialstep = 0.763E+00)
 search vector abs. value=  0.172E-02
 reached required accuracy - stopping structural energy minimisation
 writing wavefunctions
VASP is done!
