<?xml version="1.0" encoding="ISO-8859-1"?>
<modeling>
 <generator>
  <i name="program" type="string">vasp </i>
  <i name="version" type="string">5.4.4.18Apr17-6-g9f103f2a35  </i>
  <i name="subversion" type="string">(build Aug 09 2018 16:20:53) complex            parallel </i>
  <i name="platform" type="string">LinuxIFC </i>
  <i name="date" type="string">2020 04 13 </i>
  <i name="time" type="string">15:54:03 </i>
 </generator>
 <incar>
  <i type="string" name="SYSTEM"> SQS with 1 vacancy for VFE and VRV</i>
  <i type="string" name="PREC">normal</i>
  <i type="int" name="IALGO">    38</i>
  <i type="int" name="ICHARG">     2</i>
  <i type="int" name="IBRION">     2</i>
  <i type="int" name="NSW">    50</i>
  <i type="int" name="ISIF">     3</i>
  <i type="int" name="ISYM">     0</i>
  <i name="ENCUT">    600.00000000</i>
  <i type="string" name="LREAL"> Auto</i>
  <i type="int" name="ISMEAR">     1</i>
  <i name="SIGMA">      0.20000000</i>
  <v type="int" name="KPOINT_BSE">    -1     0     0     0</v>
  <i type="string" name="GGA"> PS</i>
 </incar>
 <structure name="primitive_cell" >
  <crystal>
   <varray name="basis" >
    <v>      -3.19000000      -3.19000000      -3.19000000 </v>
    <v>       1.59500000       1.59500000      -7.97500000 </v>
    <v>       7.97500000      -7.97500000      -1.59500000 </v>
   </varray>
   <i name="volume">    486.92638500 </i>
   <varray name="rec_basis" >
    <v>      -0.13584117      -0.12539185      -0.05224660 </v>
    <v>       0.04179728       0.06269592      -0.10449321 </v>
    <v>       0.06269592      -0.06269592       0.00000000 </v>
   </varray>
  </crystal>
  <varray name="positions" >
   <v>      -0.03333333      -0.06666667       0.40000000 </v>
   <v>       0.30000000      -0.40000000       0.40000000 </v>
   <v>      -0.10000000      -0.20000000       0.20000000 </v>
   <v>       0.06666667       0.13333333       0.20000000 </v>
   <v>       0.46666667      -0.06666667       0.40000000 </v>
   <v>      -0.13333333      -0.26666667      -0.40000000 </v>
   <v>       0.03333333       0.06666667      -0.40000000 </v>
   <v>      -0.36666667       0.26666667       0.40000000 </v>
   <v>       0.40000000      -0.20000000       0.20000000 </v>
   <v>      -0.20000000      -0.40000000       0.40000000 </v>
   <v>      -0.43333333       0.13333333       0.20000000 </v>
   <v>       0.36666667      -0.26666667      -0.40000000 </v>
   <v>       0.13333333       0.26666667       0.40000000 </v>
   <v>      -0.46666667       0.06666667      -0.40000000 </v>
   <v>       0.23333333       0.46666667       0.20000000 </v>
   <v>       0.20000000       0.40000000      -0.40000000 </v>
   <v>       0.00000000       0.00000000       0.00000000 </v>
   <v>      -0.30000000       0.40000000      -0.40000000 </v>
   <v>      -0.26666667       0.46666667       0.20000000 </v>
   <v>       0.33333333      -0.33333333       0.00000000 </v>
   <v>       0.43333333      -0.13333333      -0.20000000 </v>
   <v>      -0.50000000       0.00000000       0.00000000 </v>
   <v>       0.26666667      -0.46666667      -0.20000000 </v>
   <v>      -0.33333333       0.33333333       0.00000000 </v>
   <v>      -0.40000000       0.20000000      -0.20000000 </v>
   <v>      -0.16666667      -0.33333333       0.00000000 </v>
   <v>      -0.23333333      -0.46666667      -0.20000000 </v>
   <v>       0.16666667       0.33333333       0.00000000 </v>
   <v>       0.10000000       0.20000000      -0.20000000 </v>
  </varray>
 </structure>
 <varray name="primitive_index" >
  <v type="int" >        1 </v>
  <v type="int" >       17 </v>
  <v type="int" >        7 </v>
  <v type="int" >       23 </v>
  <v type="int" >       19 </v>
  <v type="int" >       18 </v>
  <v type="int" >        6 </v>
  <v type="int" >        2 </v>
  <v type="int" >       15 </v>
  <v type="int" >        8 </v>
  <v type="int" >       14 </v>
  <v type="int" >       11 </v>
  <v type="int" >       12 </v>
  <v type="int" >       27 </v>
  <v type="int" >       29 </v>
  <v type="int" >       22 </v>
  <v type="int" >        4 </v>
  <v type="int" >       25 </v>
  <v type="int" >        9 </v>
  <v type="int" >       28 </v>
  <v type="int" >       16 </v>
  <v type="int" >        3 </v>
  <v type="int" >       21 </v>
  <v type="int" >       10 </v>
  <v type="int" >       26 </v>
  <v type="int" >       13 </v>
  <v type="int" >       24 </v>
  <v type="int" >       20 </v>
  <v type="int" >        5 </v>
 </varray>
 <kpoints>
  <generation param="Gamma">
   <v type="int" name="divisions">       5        5        5 </v>
   <v name="usershift">      0.00000000       0.00000000       0.00000000 </v>
   <v name="genvec1">      0.20000000      -0.00000000      -0.00000000 </v>
   <v name="genvec2">      0.00000000       0.20000000       0.00000000 </v>
   <v name="genvec3">      0.00000000       0.00000000       0.20000000 </v>
   <v name="shift">      0.00000000       0.00000000       0.00000000 </v>
  </generation>
  <varray name="kpointlist" >
   <v>       0.00000000       0.00000000       0.00000000 </v>
   <v>       0.20000000      -0.00000000       0.00000000 </v>
   <v>       0.40000000      -0.00000000       0.00000000 </v>
   <v>       0.00000000       0.20000000       0.00000000 </v>
   <v>       0.20000000       0.20000000      -0.00000000 </v>
   <v>       0.40000000       0.20000000      -0.00000000 </v>
   <v>      -0.40000000       0.20000000      -0.00000000 </v>
   <v>      -0.20000000       0.20000000       0.00000000 </v>
   <v>       0.00000000       0.40000000       0.00000000 </v>
   <v>       0.20000000       0.40000000       0.00000000 </v>
   <v>       0.40000000       0.40000000      -0.00000000 </v>
   <v>      -0.40000000       0.40000000       0.00000000 </v>
   <v>      -0.20000000       0.40000000       0.00000000 </v>
   <v>       0.00000000       0.00000000       0.20000000 </v>
   <v>       0.20000000      -0.00000000       0.20000000 </v>
   <v>       0.40000000       0.00000000       0.20000000 </v>
   <v>      -0.40000000       0.00000000       0.20000000 </v>
   <v>      -0.20000000       0.00000000       0.20000000 </v>
   <v>       0.00000000       0.20000000       0.20000000 </v>
   <v>       0.20000000       0.20000000       0.20000000 </v>
   <v>       0.40000000       0.20000000       0.20000000 </v>
   <v>      -0.40000000       0.20000000       0.20000000 </v>
   <v>      -0.20000000       0.20000000       0.20000000 </v>
   <v>       0.00000000       0.40000000       0.20000000 </v>
   <v>       0.20000000       0.40000000       0.20000000 </v>
   <v>       0.40000000       0.40000000       0.20000000 </v>
   <v>      -0.40000000       0.40000000       0.20000000 </v>
   <v>      -0.20000000       0.40000000       0.20000000 </v>
   <v>       0.00000000      -0.40000000       0.20000000 </v>
   <v>       0.20000000      -0.40000000       0.20000000 </v>
   <v>       0.40000000      -0.40000000       0.20000000 </v>
   <v>      -0.40000000      -0.40000000       0.20000000 </v>
   <v>      -0.20000000      -0.40000000       0.20000000 </v>
   <v>       0.00000000      -0.20000000       0.20000000 </v>
   <v>       0.20000000      -0.20000000       0.20000000 </v>
   <v>       0.40000000      -0.20000000       0.20000000 </v>
   <v>      -0.40000000      -0.20000000       0.20000000 </v>
   <v>      -0.20000000      -0.20000000       0.20000000 </v>
   <v>       0.00000000       0.00000000       0.40000000 </v>
   <v>       0.20000000      -0.00000000       0.40000000 </v>
   <v>       0.40000000      -0.00000000       0.40000000 </v>
   <v>      -0.40000000       0.00000000       0.40000000 </v>
   <v>      -0.20000000       0.00000000       0.40000000 </v>
   <v>      -0.00000000       0.20000000       0.40000000 </v>
   <v>       0.20000000       0.20000000       0.40000000 </v>
   <v>       0.40000000       0.20000000       0.40000000 </v>
   <v>      -0.40000000       0.20000000       0.40000000 </v>
   <v>      -0.20000000       0.20000000       0.40000000 </v>
   <v>       0.00000000       0.40000000       0.40000000 </v>
   <v>       0.20000000       0.40000000       0.40000000 </v>
   <v>       0.40000000       0.40000000       0.40000000 </v>
   <v>      -0.40000000       0.40000000       0.40000000 </v>
   <v>      -0.20000000       0.40000000       0.40000000 </v>
   <v>       0.00000000      -0.40000000       0.40000000 </v>
   <v>       0.20000000      -0.40000000       0.40000000 </v>
   <v>       0.40000000      -0.40000000       0.40000000 </v>
   <v>      -0.40000000      -0.40000000       0.40000000 </v>
   <v>      -0.20000000      -0.40000000       0.40000000 </v>
   <v>       0.00000000      -0.20000000       0.40000000 </v>
   <v>       0.20000000      -0.20000000       0.40000000 </v>
   <v>       0.40000000      -0.20000000       0.40000000 </v>
   <v>      -0.40000000      -0.20000000       0.40000000 </v>
   <v>      -0.20000000      -0.20000000       0.40000000 </v>
  </varray>
  <varray name="weights" >
   <v>       0.00800000 </v>
   <v>       0.01600000 </v>
   <v>       0.01600000 </v>
   <v>       0.01600000 </v>
   <v>       0.01600000 </v>
   <v>       0.01600000 </v>
   <v>       0.01600000 </v>
   <v>       0.01600000 </v>
   <v>       0.01600000 </v>
   <v>       0.01600000 </v>
   <v>       0.01600000 </v>
   <v>       0.01600000 </v>
   <v>       0.01600000 </v>
   <v>       0.01600000 </v>
   <v>       0.01600000 </v>
   <v>       0.01600000 </v>
   <v>       0.01600000 </v>
   <v>       0.01600000 </v>
   <v>       0.01600000 </v>
   <v>       0.01600000 </v>
   <v>       0.01600000 </v>
   <v>       0.01600000 </v>
   <v>       0.01600000 </v>
   <v>       0.01600000 </v>
   <v>       0.01600000 </v>
   <v>       0.01600000 </v>
   <v>       0.01600000 </v>
   <v>       0.01600000 </v>
   <v>       0.01600000 </v>
   <v>       0.01600000 </v>
   <v>       0.01600000 </v>
   <v>       0.01600000 </v>
   <v>       0.01600000 </v>
   <v>       0.01600000 </v>
   <v>       0.01600000 </v>
   <v>       0.01600000 </v>
   <v>       0.01600000 </v>
   <v>       0.01600000 </v>
   <v>       0.01600000 </v>
   <v>       0.01600000 </v>
   <v>       0.01600000 </v>
   <v>       0.01600000 </v>
   <v>       0.01600000 </v>
   <v>       0.01600000 </v>
   <v>       0.01600000 </v>
   <v>       0.01600000 </v>
   <v>       0.01600000 </v>
   <v>       0.01600000 </v>
   <v>       0.01600000 </v>
   <v>       0.01600000 </v>
   <v>       0.01600000 </v>
   <v>       0.01600000 </v>
   <v>       0.01600000 </v>
   <v>       0.01600000 </v>
   <v>       0.01600000 </v>
   <v>       0.01600000 </v>
   <v>       0.01600000 </v>
   <v>       0.01600000 </v>
   <v>       0.01600000 </v>
   <v>       0.01600000 </v>
   <v>       0.01600000 </v>
   <v>       0.01600000 </v>
   <v>       0.01600000 </v>
  </varray>
 </kpoints>
 <parameters>
  <separator name="general" >
   <i type="string" name="SYSTEM">SQS with 1 vacancy for VFE and VRV</i>
   <i type="logical" name="LCOMPAT"> F  </i>
  </separator>
  <separator name="electronic" >
   <i type="string" name="PREC">normal</i>
   <i name="ENMAX">    600.00000000</i>
   <i name="ENAUG">    455.65900000</i>
   <i name="EDIFF">      0.00010000</i>
   <i type="int" name="IALGO">    38</i>
   <i type="int" name="IWAVPR">    11</i>
   <i type="int" name="NBANDS">   120</i>
   <i name="NELECT">    199.00000000</i>
   <i type="int" name="TURBO">     0</i>
   <i type="int" name="IRESTART">     0</i>
   <i type="int" name="NREBOOT">     0</i>
   <i type="int" name="NMIN">     0</i>
   <i name="EREF">      0.00000000</i>
   <separator name="electronic smearing" >
    <i type="int" name="ISMEAR">     1</i>
    <i name="SIGMA">      0.20000000</i>
    <i name="KSPACING">      0.50000000</i>
    <i type="logical" name="KGAMMA"> T  </i>
   </separator>
   <separator name="electronic projectors" >
    <i type="logical" name="LREAL"> T  </i>
    <v name="ROPT">     -0.00050000     -0.00050000     -0.00050000     -0.00050000     -0.00050000</v>
    <i type="int" name="LMAXPAW">  -100</i>
    <i type="int" name="LMAXMIX">     2</i>
    <i type="logical" name="NLSPLINE"> F  </i>
   </separator>
   <separator name="electronic startup" >
    <i type="int" name="ISTART">     0</i>
    <i type="int" name="ICHARG">     2</i>
    <i type="int" name="INIWAV">     1</i>
   </separator>
   <separator name="electronic spin" >
    <i type="int" name="ISPIN">     1</i>
    <i type="logical" name="LNONCOLLINEAR"> F  </i>
    <v name="MAGMOM">      1.00000000      1.00000000      1.00000000      1.00000000      1.00000000      1.00000000      1.00000000      1.00000000      1.00000000      1.00000000      1.00000000      1.00000000      1.00000000      1.00000000      1.00000000      1.00000000      1.00000000      1.00000000      1.00000000      1.00000000
      1.00000000      1.00000000      1.00000000      1.00000000      1.00000000      1.00000000      1.00000000      1.00000000      1.00000000</v>
    <i name="NUPDOWN">     -1.00000000</i>
    <i type="logical" name="LSORBIT"> F  </i>
    <v name="SAXIS">      0.00000000      0.00000000      1.00000000</v>
    <i type="logical" name="LSPIRAL"> F  </i>
    <v name="QSPIRAL">      0.00000000      0.00000000      0.00000000</v>
    <i type="logical" name="LZEROZ"> F  </i>
   </separator>
   <separator name="electronic exchange-correlation" >
    <i type="logical" name="LASPH"> F  </i>
    <i type="logical" name="LMETAGGA"> F  </i>
   </separator>
   <separator name="electronic convergence" >
    <i type="int" name="NELM">    60</i>
    <i type="int" name="NELMDL">    -5</i>
    <i type="int" name="NELMIN">     2</i>
    <i name="ENINI">    600.00000000</i>
    <separator name="electronic convergence detail" >
     <i type="logical" name="LDIAG"> T  </i>
     <i type="logical" name="LSUBROT"> F  </i>
     <i name="WEIMIN">      0.00100000</i>
     <i name="EBREAK">      0.00000021</i>
     <i name="DEPER">      0.30000000</i>
     <i type="int" name="NRMM">     4</i>
     <i name="TIME">      0.40000000</i>
    </separator>
   </separator>
   <separator name="electronic mixer" >
    <i name="AMIX">      0.40000000</i>
    <i name="BMIX">      1.00000000</i>
    <i name="AMIN">      0.10000000</i>
    <i name="AMIX_MAG">      1.60000000</i>
    <i name="BMIX_MAG">      1.00000000</i>
    <separator name="electronic mixer details" >
     <i type="int" name="IMIX">     4</i>
     <i type="logical" name="MIXFIRST"> F  </i>
     <i type="int" name="MAXMIX">   -45</i>
     <i name="WC">    100.00000000</i>
     <i type="int" name="INIMIX">     1</i>
     <i type="int" name="MIXPRE">     1</i>
     <i type="int" name="MREMOVE">     5</i>
    </separator>
   </separator>
   <separator name="electronic dipolcorrection" >
    <i type="logical" name="LDIPOL"> F  </i>
    <i type="logical" name="LMONO"> F  </i>
    <i type="int" name="IDIPOL">     0</i>
    <i name="EPSILON">      1.00000000</i>
    <v name="DIPOL">   -100.00000000   -100.00000000   -100.00000000</v>
    <i name="EFIELD">      0.00000000</i>
   </separator>
  </separator>
  <separator name="grids" >
   <i type="int" name="NGX">    36</i>
   <i type="int" name="NGY">    50</i>
   <i type="int" name="NGZ">    70</i>
   <i type="int" name="NGXF">    72</i>
   <i type="int" name="NGYF">   100</i>
   <i type="int" name="NGZF">   140</i>
   <i type="logical" name="ADDGRID"> F  </i>
  </separator>
  <separator name="ionic" >
   <i type="int" name="NSW">    50</i>
   <i type="int" name="IBRION">     2</i>
   <i type="int" name="MDALGO">     0</i>
   <i type="int" name="ISIF">     3</i>
   <i name="PSTRESS">      0.00000000</i>
   <i name="EDIFFG">      0.00100000</i>
   <i type="int" name="NFREE">     1</i>
   <i name="POTIM">      0.50000000</i>
   <i name="SMASS">     -3.00000000</i>
   <i name="SCALEE">      1.00000000</i>
  </separator>
  <separator name="ionic md" >
   <i name="TEBEG">      0.00010000</i>
   <i name="TEEND">      0.00010000</i>
   <i type="int" name="NBLOCK">     1</i>
   <i type="int" name="KBLOCK">    50</i>
   <i type="int" name="NPACO">   256</i>
   <i name="APACO">     16.00000000</i>
  </separator>
  <separator name="symmetry" >
   <i type="int" name="ISYM">     0</i>
   <i name="SYMPREC">      0.00001000</i>
  </separator>
  <separator name="dos" >
   <i type="int" name="LORBIT">     0</i>
   <v name="RWIGS">     -1.00000000     -1.00000000     -1.00000000     -1.00000000     -1.00000000</v>
   <i type="int" name="NEDOS">   301</i>
   <i name="EMIN">     10.00000000</i>
   <i name="EMAX">    -10.00000000</i>
   <i name="EFERMI">      0.00000000</i>
  </separator>
  <separator name="writing" >
   <i type="int" name="NWRITE">     2</i>
   <i type="logical" name="LWAVE"> T  </i>
   <i type="logical" name="LDOWNSAMPLE"> F  </i>
   <i type="logical" name="LCHARG"> T  </i>
   <i type="logical" name="LPARD"> F  </i>
   <i type="logical" name="LVTOT"> F  </i>
   <i type="logical" name="LVHAR"> F  </i>
   <i type="logical" name="LELF"> F  </i>
   <i type="logical" name="LOPTICS"> F  </i>
   <v name="STM">      0.00000000      0.00000000      0.00000000      0.00000000      0.00000000      0.00000000      0.00000000</v>
  </separator>
  <separator name="performance" >
   <i type="int" name="NPAR">     8</i>
   <i type="int" name="NSIM">     4</i>
   <i type="int" name="NBLK">    -1</i>
   <i type="logical" name="LPLANE"> T  </i>
   <i type="logical" name="LSCALAPACK"> T  </i>
   <i type="logical" name="LSCAAWARE"> F  </i>
   <i type="logical" name="LSCALU"> F  </i>
   <i type="logical" name="LASYNC"> F  </i>
   <i type="logical" name="LORBITALREAL"> F  </i>
  </separator>
  <separator name="miscellaneous" >
   <i type="int" name="IDIOT">     3</i>
   <i type="int" name="ISPECIAL">     0</i>
   <i type="logical" name="LMUSIC"> F  </i>
   <v name="POMASS">     92.91000000     95.94000000    180.94800000     47.88000000    183.85000000</v>
   <v name="DARWINR">      0.00000000      0.00000000      0.00000000      0.00000000      0.00000000</v>
   <v name="DARWINV">      1.00000000      1.00000000      1.00000000      1.00000000      1.00000000</v>
   <i type="logical" name="LCORR"> T  </i>
  </separator>
  <i type="logical" name="GGA_COMPAT"> T  </i>
  <i type="logical" name="LBERRY"> F  </i>
  <i type="int" name="ICORELEVEL">     0</i>
  <i type="logical" name="LDAU"> F  </i>
  <i type="int" name="I_CONSTRAINED_M">     0</i>
  <separator name="electronic exchange-correlation" >
   <i type="string" name="GGA">PS</i>
   <i type="int" name="VOSKOWN">     0</i>
   <i type="logical" name="LHFCALC"> F  </i>
   <i type="string" name="PRECFOCK"></i>
   <i type="logical" name="LSYMGRAD"> F  </i>
   <i type="logical" name="LHFONE"> F  </i>
   <i type="logical" name="LRHFCALC"> F  </i>
   <i type="logical" name="LTHOMAS"> F  </i>
   <i type="logical" name="LMODELHF"> F  </i>
   <i name="ENCUT4O">     -1.00000000</i>
   <i type="int" name="EXXOEP">     0</i>
   <i type="int" name="FOURORBIT">     0</i>
   <i name="AEXX">      0.00000000</i>
   <i name="HFALPHA">      0.00000000</i>
   <i name="MCALPHA">      0.00000000</i>
   <i name="ALDAX">      1.00000000</i>
   <i name="AGGAX">      1.00000000</i>
   <i name="ALDAC">      1.00000000</i>
   <i name="AGGAC">      1.00000000</i>
   <i type="int" name="NKREDX">     1</i>
   <i type="int" name="NKREDY">     1</i>
   <i type="int" name="NKREDZ">     1</i>
   <i type="logical" name="SHIFTRED"> F  </i>
   <i type="logical" name="ODDONLY"> F  </i>
   <i type="logical" name="EVENONLY"> F  </i>
   <i type="int" name="LMAXFOCK">     0</i>
   <i type="int" name="NMAXFOCKAE">     0</i>
   <i type="logical" name="LFOCKAEDFT"> F  </i>
   <i name="HFSCREEN">      0.00000000</i>
   <i name="HFSCREENC">      0.00000000</i>
   <i type="int" name="NBANDSGWLOW">     0</i>
  </separator>
  <separator name="vdW DFT" >
   <i type="logical" name="LUSE_VDW"> F  </i>
   <i name="Zab_VDW">     -0.84910000</i>
   <i name="PARAM1">      0.12340000</i>
   <i name="PARAM2">      1.00000000</i>
   <i name="PARAM3">      0.00000000</i>
  </separator>
  <separator name="model GW" >
   <i type="int" name="MODEL_GW">     0</i>
   <i name="MODEL_EPS0">     10.07433900</i>
   <i name="MODEL_ALPHA">      1.00000000</i>
  </separator>
  <separator name="linear response parameters" >
   <i type="logical" name="LEPSILON"> F  </i>
   <i type="logical" name="LRPA"> F  </i>
   <i type="logical" name="LNABLA"> F  </i>
   <i type="logical" name="LVEL"> F  </i>
   <i type="int" name="KINTER">     0</i>
   <i name="CSHIFT">      0.10000000</i>
   <i name="OMEGAMAX">     -1.00000000</i>
   <i name="DEG_THRESHOLD">      0.00200000</i>
   <i name="RTIME">     -0.10000000</i>
   <i name="WPLASMAI">      0.00000000</i>
   <v name="DFIELD">      0.00000000      0.00000000      0.00000000</v>
   <v name="WPLASMA">      0.00000000      0.00000000      0.00000000      0.00000000      0.00000000      0.00000000      0.00000000      0.00000000      0.00000000</v>
  </separator>
  <separator name="orbital magnetization" >
   <i type="logical" name="NUCIND"> F  </i>
   <v name="MAGPOS">      0.00000000      0.00000000      0.00000000</v>
   <i type="logical" name="LNICSALL"> T  </i>
   <i type="logical" name="ORBITALMAG"> F  </i>
   <i type="logical" name="LMAGBLOCH"> F  </i>
   <i type="logical" name="LCHIMAG"> F  </i>
   <i type="logical" name="LGAUGE"> T  </i>
   <i type="int" name="MAGATOM">     0</i>
   <v name="MAGDIPOL">      0.00000000      0.00000000      0.00000000</v>
   <v name="AVECCONST">      0.00000000      0.00000000      0.00000000</v>
  </separator>
  <separator name="response functions" >
   <i type="logical" name="LADDER"> F  </i>
   <i type="logical" name="LRPAFORCE"> F  </i>
   <i type="logical" name="LFXC"> F  </i>
   <i type="logical" name="LHARTREE"> T  </i>
   <i type="int" name="IBSE">     0</i>
   <v type="int" name="KPOINT">    -1     0     0     0</v>
   <i type="logical" name="LTCTE"> F  </i>
   <i type="logical" name="LTETE"> F  </i>
   <i type="logical" name="LTRIPLET"> F  </i>
   <i type="logical" name="LFXCEPS"> F  </i>
   <i type="logical" name="LFXHEG"> F  </i>
   <i type="int" name="NATURALO">     2</i>
   <i type="logical" name="L2ORDER"> F  </i>
   <i type="logical" name="LMP2LT"> F  </i>
   <i type="logical" name="LUSEW"> F  </i>
   <i name="ENCUTGW">     -2.00000000</i>
   <i name="ENCUTGWSOFT">     -2.00000000</i>
   <i name="ENCUTLF">     -1.00000000</i>
   <i type="int" name="LMAXMP2">    -1</i>
   <i name="SCISSOR">      0.00000000</i>
   <i type="int" name="NOMEGA">     0</i>
   <i type="int" name="NOMEGAR">     0</i>
   <i type="int" name="NBANDSGW">    -1</i>
   <i type="int" name="NBANDSO">    -1</i>
   <i type="int" name="NBANDSV">    -1</i>
   <i type="int" name="NELM">     1</i>
   <i type="int" name="NELMHF">     1</i>
   <i type="int" name="DIM">     3</i>
   <i type="int" name="ANTIRES">     0</i>
   <i name="OMEGAMAX">    -30.00000000</i>
   <i name="OMEGAMIN">    -30.00000000</i>
   <i name="OMEGATL">   -200.00000000</i>
   <i type="int" name="OMEGAGRID">   140</i>
   <i name="CSHIFT">     -0.10000000</i>
   <i type="logical" name="SELFENERGY"> F  </i>
   <i type="logical" name="LSPECTRAL"> F  </i>
   <i type="logical" name="LSPECTRALGW"> F  </i>
   <i type="logical" name="LSINGLES"> F  </i>
   <i type="logical" name="LFERMIGW"> F  </i>
   <i type="logical" name="ODDONLYGW"> F  </i>
   <i type="logical" name="EVENONLYGW"> F  </i>
   <i type="int" name="NKREDLFX">     1</i>
   <i type="int" name="NKREDLFY">     1</i>
   <i type="int" name="NKREDLFZ">     1</i>
   <i type="int" name="MAXMEM">  2800</i>
   <i type="int" name="TELESCOPE">     0</i>
   <i type="int" name="TAUPAR">     1</i>
   <i type="int" name="OMEGAPAR">    -1</i>
   <i name="LAMBDA">      1.00000000</i>
  </separator>
  <separator name="External order field" >
   <i name="OFIELD_KAPPA">      0.00000000</i>
   <v name="OFIELD_K">      0.00000000      0.00000000      0.00000000</v>
   <i name="OFIELD_Q6_NEAR">      0.00000000</i>
   <i name="OFIELD_Q6_FAR">      0.00000000</i>
   <i name="OFIELD_A">      0.00000000</i>
  </separator>
  <separator name="solvation model" >
   <i type="logical" name="LSOL"> F  </i>
  </separator>
 </parameters>
 <atominfo>
  <atoms>      29 </atoms>
  <types>       5 </types>
  <array name="atoms" >
   <dimension dim="1">ion</dimension>
   <field type="string">element</field>
   <field type="int">atomtype</field>
   <set>
    <rc><c>Nb</c><c>   1</c></rc>
    <rc><c>Nb</c><c>   1</c></rc>
    <rc><c>Nb</c><c>   1</c></rc>
    <rc><c>Nb</c><c>   1</c></rc>
    <rc><c>Nb</c><c>   1</c></rc>
    <rc><c>Nb</c><c>   1</c></rc>
    <rc><c>Mo</c><c>   2</c></rc>
    <rc><c>Mo</c><c>   2</c></rc>
    <rc><c>Mo</c><c>   2</c></rc>
    <rc><c>Mo</c><c>   2</c></rc>
    <rc><c>Mo</c><c>   2</c></rc>
    <rc><c>Mo</c><c>   2</c></rc>
    <rc><c>Ta</c><c>   3</c></rc>
    <rc><c>Ta</c><c>   3</c></rc>
    <rc><c>Ta</c><c>   3</c></rc>
    <rc><c>Ta</c><c>   3</c></rc>
    <rc><c>Ta</c><c>   3</c></rc>
    <rc><c>Ti</c><c>   4</c></rc>
    <rc><c>Ti</c><c>   4</c></rc>
    <rc><c>Ti</c><c>   4</c></rc>
    <rc><c>Ti</c><c>   4</c></rc>
    <rc><c>Ti</c><c>   4</c></rc>
    <rc><c>Ti</c><c>   4</c></rc>
    <rc><c>W </c><c>   5</c></rc>
    <rc><c>W </c><c>   5</c></rc>
    <rc><c>W </c><c>   5</c></rc>
    <rc><c>W </c><c>   5</c></rc>
    <rc><c>W </c><c>   5</c></rc>
    <rc><c>W </c><c>   5</c></rc>
   </set>
  </array>
  <array name="atomtypes" >
   <dimension dim="1">type</dimension>
   <field type="int">atomspertype</field>
   <field type="string">element</field>
   <field>mass</field>
   <field>valence</field>
   <field type="string">pseudopotential</field>
   <set>
    <rc><c>   6</c><c>Nb</c><c>     92.91000000</c><c>     13.00000000</c><c>  PAW_PBE Nb_sv 25May2007               </c></rc>
    <rc><c>   6</c><c>Mo</c><c>     95.94000000</c><c>      6.00000000</c><c>  PAW_PBE Mo 08Apr2002                  </c></rc>
    <rc><c>   5</c><c>Ta</c><c>    180.94800000</c><c>      5.00000000</c><c>  PAW_PBE Ta 17Jan2003                  </c></rc>
    <rc><c>   6</c><c>Ti</c><c>     47.88000000</c><c>      4.00000000</c><c>  PAW_PBE Ti 08Apr2002                  </c></rc>
    <rc><c>   6</c><c>W </c><c>    183.85000000</c><c>      6.00000000</c><c>  PAW_PBE W 08Apr2002                   </c></rc>
   </set>
  </array>
 </atominfo>
 <structure name="initialpos" >
  <crystal>
   <varray name="basis" >
    <v>      -3.19000000      -3.19000000      -3.19000000 </v>
    <v>       1.59500000       1.59500000      -7.97500000 </v>
    <v>       7.97500000      -7.97500000      -1.59500000 </v>
   </varray>
   <i name="volume">    486.92638500 </i>
   <varray name="rec_basis" >
    <v>      -0.13584117      -0.12539185      -0.05224660 </v>
    <v>       0.04179728       0.06269592      -0.10449321 </v>
    <v>       0.06269592      -0.06269592       0.00000000 </v>
   </varray>
  </crystal>
  <varray name="positions" >
   <v>       0.96666667       0.93333333       0.40000000 </v>
   <v>       0.63333333       0.26666667       0.40000000 </v>
   <v>       0.50000000       0.00000000       0.00000000 </v>
   <v>       0.00000000       0.00000000       0.00000000 </v>
   <v>       0.10000000       0.20000000       0.80000000 </v>
   <v>       0.03333333       0.06666667       0.60000000 </v>
   <v>       0.90000000       0.80000000       0.20000000 </v>
   <v>       0.80000000       0.60000000       0.40000000 </v>
   <v>       0.73333333       0.46666667       0.20000000 </v>
   <v>       0.66666667       0.33333333       0.00000000 </v>
   <v>       0.36666667       0.73333333       0.60000000 </v>
   <v>       0.13333333       0.26666667       0.40000000 </v>
   <v>       0.83333333       0.66666667       0.00000000 </v>
   <v>       0.56666667       0.13333333       0.20000000 </v>
   <v>       0.40000000       0.80000000       0.20000000 </v>
   <v>       0.43333333       0.86666667       0.80000000 </v>
   <v>       0.30000000       0.60000000       0.40000000 </v>
   <v>       0.86666667       0.73333333       0.60000000 </v>
   <v>       0.46666667       0.93333333       0.40000000 </v>
   <v>       0.16666667       0.33333333       0.00000000 </v>
   <v>       0.26666667       0.53333333       0.80000000 </v>
   <v>       0.20000000       0.40000000       0.60000000 </v>
   <v>       0.06666667       0.13333333       0.20000000 </v>
   <v>       0.76666667       0.53333333       0.80000000 </v>
   <v>       0.70000000       0.40000000       0.60000000 </v>
   <v>       0.60000000       0.20000000       0.80000000 </v>
   <v>       0.53333333       0.06666667       0.60000000 </v>
   <v>       0.33333333       0.66666667       0.00000000 </v>
   <v>       0.23333333       0.46666667       0.20000000 </v>
  </varray>
 </structure>
 <calculation>
  <scstep>
   <time name="dav">   18.31   18.37</time>
   <time name="total">   18.36   18.43</time>
   <energy>
    <i name="alphaZ">   1302.23520220 </i>
    <i name="ewald"> -11651.36236789 </i>
    <i name="hartreedc">  -3116.95532952 </i>
    <i name="XCdc">   -838.96921290 </i>
    <i name="pawpsdc">  12115.92678409 </i>
    <i name="pawaedc"> -10625.29399854 </i>
    <i name="eentropy">     -0.00250402 </i>
    <i name="bandstr">   1902.27629834 </i>
    <i name="atom">  13080.25727947 </i>
    <i name="e_fr_energy">   2168.11215122 </i>
    <i name="e_wo_entrp">   2168.11465524 </i>
    <i name="e_0_energy">   2168.11298589 </i>
   </energy>
  </scstep>
  <scstep>
   <time name="dav">   18.41   18.44</time>
   <time name="total">   18.41   18.45</time>
   <energy>
    <i name="e_fr_energy">     75.78803661 </i>
    <i name="e_wo_entrp">     75.78453411 </i>
    <i name="e_0_energy">     75.78686911 </i>
   </energy>
  </scstep>
  <scstep>
   <time name="dav">   28.64   28.70</time>
   <time name="total">   28.65   28.70</time>
   <energy>
    <i name="e_fr_energy">   -301.15970839 </i>
    <i name="e_wo_entrp">   -301.15218583 </i>
    <i name="e_0_energy">   -301.15720087 </i>
   </energy>
  </scstep>
  <scstep>
   <time name="dav">   25.66   25.71</time>
   <time name="total">   25.66   25.71</time>
   <energy>
    <i name="e_fr_energy">   -347.78893064 </i>
    <i name="e_wo_entrp">   -347.78377611 </i>
    <i name="e_0_energy">   -347.78721247 </i>
   </energy>
  </scstep>
  <scstep>
   <time name="dav">   30.70   30.76</time>
   <time name="total">   31.28   31.34</time>
   <energy>
    <i name="e_fr_energy">   -352.95619765 </i>
    <i name="e_wo_entrp">   -352.95292274 </i>
    <i name="e_0_energy">   -352.95510602 </i>
   </energy>
  </scstep>
  <scstep>
   <time name="dav">   23.45   23.49</time>
   <time name="total">   24.06   24.10</time>
   <energy>
    <i name="e_fr_energy">   -342.34395637 </i>
    <i name="e_wo_entrp">   -342.33370824 </i>
    <i name="e_0_energy">   -342.34054033 </i>
   </energy>
  </scstep>
  <scstep>
   <time name="dav">   24.47   24.51</time>
   <time name="total">   25.08   25.11</time>
   <energy>
    <i name="e_fr_energy">   -358.95648551 </i>
    <i name="e_wo_entrp">   -358.95710694 </i>
    <i name="e_0_energy">   -358.95669265 </i>
   </energy>
  </scstep>
  <scstep>
   <time name="dav">   25.20   25.24</time>
   <time name="total">   25.83   25.87</time>
   <energy>
    <i name="e_fr_energy">   -347.67548605 </i>
    <i name="e_wo_entrp">   -347.68086995 </i>
    <i name="e_0_energy">   -347.67728068 </i>
   </energy>
  </scstep>
  <scstep>
   <time name="dav">   24.00   24.04</time>
   <time name="total">   24.60   24.64</time>
   <energy>
    <i name="e_fr_energy">   -335.41593823 </i>
    <i name="e_wo_entrp">   -335.41717537 </i>
    <i name="e_0_energy">   -335.41635061 </i>
   </energy>
  </scstep>
  <scstep>
   <time name="dav">   25.13   25.16</time>
   <time name="total">   25.74   25.78</time>
   <energy>
    <i name="e_fr_energy">   -332.60420446 </i>
    <i name="e_wo_entrp">   -332.60694480 </i>
    <i name="e_0_energy">   -332.60511790 </i>
   </energy>
  </scstep>
  <scstep>
   <time name="dav">   24.90   24.94</time>
   <time name="total">   25.51   25.55</time>
   <energy>
    <i name="e_fr_energy">   -331.24272704 </i>
    <i name="e_wo_entrp">   -331.23960459 </i>
    <i name="e_0_energy">   -331.24168623 </i>
   </energy>
  </scstep>
  <scstep>
   <time name="dav">   24.26   24.29</time>
   <time name="total">   24.86   24.89</time>
   <energy>
    <i name="e_fr_energy">   -330.68089758 </i>
    <i name="e_wo_entrp">   -330.67608266 </i>
    <i name="e_0_energy">   -330.67929261 </i>
   </energy>
  </scstep>
  <scstep>
   <time name="dav">   23.62   23.66</time>
   <time name="total">   24.24   24.27</time>
   <energy>
    <i name="e_fr_energy">   -330.62420421 </i>
    <i name="e_wo_entrp">   -330.61825565 </i>
    <i name="e_0_energy">   -330.62222135 </i>
   </energy>
  </scstep>
  <scstep>
   <time name="dav">   23.93   23.96</time>
   <time name="total">   24.54   24.58</time>
   <energy>
    <i name="e_fr_energy">   -330.58977973 </i>
    <i name="e_wo_entrp">   -330.58254409 </i>
    <i name="e_0_energy">   -330.58736785 </i>
   </energy>
  </scstep>
  <scstep>
   <time name="dav">   25.48   25.51</time>
   <time name="total">   26.07   26.11</time>
   <energy>
    <i name="e_fr_energy">   -330.60654922 </i>
    <i name="e_wo_entrp">   -330.59782116 </i>
    <i name="e_0_energy">   -330.60363987 </i>
   </energy>
  </scstep>
  <scstep>
   <time name="dav">   25.01   25.05</time>
   <time name="total">   25.63   25.66</time>
   <energy>
    <i name="e_fr_energy">   -330.59290780 </i>
    <i name="e_wo_entrp">   -330.58507190 </i>
    <i name="e_0_energy">   -330.59029583 </i>
   </energy>
  </scstep>
  <scstep>
   <time name="dav">   24.95   24.98</time>
   <time name="total">   25.55   25.59</time>
   <energy>
    <i name="e_fr_energy">   -330.58621826 </i>
    <i name="e_wo_entrp">   -330.57838548 </i>
    <i name="e_0_energy">   -330.58360733 </i>
   </energy>
  </scstep>
  <scstep>
   <time name="dav">   24.16   24.20</time>
   <time name="total">   24.76   24.80</time>
   <energy>
    <i name="e_fr_energy">   -330.58405579 </i>
    <i name="e_wo_entrp">   -330.57694944 </i>
    <i name="e_0_energy">   -330.58168701 </i>
   </energy>
  </scstep>
  <scstep>
   <time name="dav">   23.92   23.99</time>
   <time name="total">   24.52   24.60</time>
   <energy>
    <i name="e_fr_energy">   -330.58401497 </i>
    <i name="e_wo_entrp">   -330.57683771 </i>
    <i name="e_0_energy">   -330.58162255 </i>
   </energy>
  </scstep>
  <scstep>
   <time name="dav">   22.18   22.23</time>
   <time name="total">   22.81   22.87</time>
   <energy>
    <i name="e_fr_energy">   -330.58378108 </i>
    <i name="e_wo_entrp">   -330.57657434 </i>
    <i name="e_0_energy">   -330.58137884 </i>
   </energy>
  </scstep>
  <scstep>
   <time name="dav">   19.99   20.04</time>
   <time name="total">   20.02   20.07</time>
   <energy>
    <i name="alphaZ">   1302.23520220 </i>
    <i name="ewald"> -11651.36236789 </i>
    <i name="hartreedc">  -2970.36074011 </i>
    <i name="XCdc">   -833.42409480 </i>
    <i name="pawpsdc">  20651.91809740 </i>
    <i name="pawaedc"> -19162.24853882 </i>
    <i name="eentropy">     -0.00726070 </i>
    <i name="bandstr">   -747.59129138 </i>
    <i name="atom">  13080.25727947 </i>
    <i name="e_fr_energy">   -330.58371464 </i>
    <i name="e_wo_entrp">   -330.57645394 </i>
    <i name="e_0_energy">   -330.58129441 </i>
   </energy>
  </scstep>
  <structure>
   <crystal>
    <varray name="basis" >
     <v>      -3.19000000      -3.19000000      -3.19000000 </v>
     <v>       1.59500000       1.59500000      -7.97500000 </v>
     <v>       7.97500000      -7.97500000      -1.59500000 </v>
    </varray>
    <i name="volume">    486.92638500 </i>
    <varray name="rec_basis" >
     <v>      -0.13584117      -0.12539185      -0.05224660 </v>
     <v>       0.04179728       0.06269592      -0.10449321 </v>
     <v>       0.06269592      -0.06269592       0.00000000 </v>
    </varray>
   </crystal>
   <varray name="positions" >
    <v>       0.96666667       0.93333333       0.40000000 </v>
    <v>       0.63333333       0.26666667       0.40000000 </v>
    <v>       0.50000000       0.00000000       0.00000000 </v>
    <v>       0.00000000       0.00000000       0.00000000 </v>
    <v>       0.10000000       0.20000000       0.80000000 </v>
    <v>       0.03333333       0.06666667       0.60000000 </v>
    <v>       0.90000000       0.80000000       0.20000000 </v>
    <v>       0.80000000       0.60000000       0.40000000 </v>
    <v>       0.73333333       0.46666667       0.20000000 </v>
    <v>       0.66666667       0.33333333       0.00000000 </v>
    <v>       0.36666667       0.73333333       0.60000000 </v>
    <v>       0.13333333       0.26666667       0.40000000 </v>
    <v>       0.83333333       0.66666667       0.00000000 </v>
    <v>       0.56666667       0.13333333       0.20000000 </v>
    <v>       0.40000000       0.80000000       0.20000000 </v>
    <v>       0.43333333       0.86666667       0.80000000 </v>
    <v>       0.30000000       0.60000000       0.40000000 </v>
    <v>       0.86666667       0.73333333       0.60000000 </v>
    <v>       0.46666667       0.93333333       0.40000000 </v>
    <v>       0.16666667       0.33333333       0.00000000 </v>
    <v>       0.26666667       0.53333333       0.80000000 </v>
    <v>       0.20000000       0.40000000       0.60000000 </v>
    <v>       0.06666667       0.13333333       0.20000000 </v>
    <v>       0.76666667       0.53333333       0.80000000 </v>
    <v>       0.70000000       0.40000000       0.60000000 </v>
    <v>       0.60000000       0.20000000       0.80000000 </v>
    <v>       0.53333333       0.06666667       0.60000000 </v>
    <v>       0.33333333       0.66666667       0.00000000 </v>
    <v>       0.23333333       0.46666667       0.20000000 </v>
   </varray>
  </structure>
  <varray name="forces" >
   <v>      -0.01894103       0.41104156       0.22867093 </v>
   <v>       0.15240385      -0.22308099       0.15350570 </v>
   <v>       0.09332046       0.25690336      -0.26700473 </v>
   <v>      -0.32058067       0.38288177       0.48648584 </v>
   <v>       0.14885671       0.47401756      -0.71801972 </v>
   <v>       0.02056267      -0.40701170       0.22464469 </v>
   <v>       0.15993897      -0.41437494       0.06814842 </v>
   <v>      -0.50448522      -0.18507767       0.51278231 </v>
   <v>      -0.07808206       0.02907751       0.08736819 </v>
   <v>       0.13821513       0.40137549      -0.60189316 </v>
   <v>      -0.51105168      -0.41876432       0.18234221 </v>
   <v>      -0.13640774       0.45472228      -0.55089637 </v>
   <v>      -0.30760403       0.17875208      -0.18654192 </v>
   <v>      -0.58585673       0.27951163       0.06087279 </v>
   <v>      -0.75783101       0.02180030       0.55856220 </v>
   <v>      -0.80061713      -0.15447559       0.49831581 </v>
   <v>       0.50898505      -0.26021021      -0.36798851 </v>
   <v>       0.54320248       0.12066563       0.02300580 </v>
   <v>       0.62469918      -0.56804794       0.17567119 </v>
   <v>      -0.09564466      -0.24973427      -0.21130095 </v>
   <v>       0.23419715       0.34330252      -0.86423372 </v>
   <v>      -0.26750912      -0.12391498       0.58697465 </v>
   <v>       0.84505309      -0.29478308      -0.80512729 </v>
   <v>       0.00718631      -0.03157198       1.19288940 </v>
   <v>       0.79374621       0.02652459      -0.77445391 </v>
   <v>      -0.20590942       0.50329517       0.20296407 </v>
   <v>       0.31753837      -0.23810156      -0.44854329 </v>
   <v>      -0.19396337      -0.64338337       0.60895670 </v>
   <v>       0.19657824       0.32866116      -0.05615734 </v>
  </varray>
  <varray name="stress" >
   <v>     -38.12070504       0.21393074       3.19819068 </v>
   <v>       0.21393077     -33.64422584      -2.92402583 </v>
   <v>       3.19819067      -2.92402606     -34.15559909 </v>
  </varray>
  <energy>
   <i name="e_fr_energy">   -330.58371464 </i>
   <i name="e_wo_entrp">   -330.58129441 </i>
   <i name="e_0_energy">     -0.00726070 </i>
  </energy>
  <time name="totalsc">  535.39  536.42</time>
 </calculation>
 <calculation>
  <scstep>
   <time name="dav">   22.70   22.74</time>
   <time name="total">   23.30   23.34</time>
   <energy>
    <i name="alphaZ">   1374.54570401 </i>
    <i name="ewald"> -11898.89191055 </i>
    <i name="hartreedc">  -2989.78876996 </i>
    <i name="XCdc">   -826.55053096 </i>
    <i name="pawpsdc">  20652.83868089 </i>
    <i name="pawaedc"> -19163.08930770 </i>
    <i name="eentropy">     -0.00817420 </i>
    <i name="bandstr">   -562.26747679 </i>
    <i name="atom">  13080.25727947 </i>
    <i name="e_fr_energy">   -332.95450578 </i>
    <i name="e_wo_entrp">   -332.94633158 </i>
    <i name="e_0_energy">   -332.95178105 </i>
   </energy>
  </scstep>
  <scstep>
   <time name="dav">   26.72   26.76</time>
   <time name="total">   27.32   27.36</time>
   <energy>
    <i name="e_fr_energy">   -333.21353120 </i>
    <i name="e_wo_entrp">   -333.21883416 </i>
    <i name="e_0_energy">   -333.21529885 </i>
   </energy>
  </scstep>
  <scstep>
   <time name="dav">   25.36   25.40</time>
   <time name="total">   25.96   26.00</time>
   <energy>
    <i name="e_fr_energy">   -331.62928976 </i>
    <i name="e_wo_entrp">   -331.62921707 </i>
    <i name="e_0_energy">   -331.62926553 </i>
   </energy>
  </scstep>
  <scstep>
   <time name="dav">   26.29   26.33</time>
   <time name="total">   26.89   26.94</time>
   <energy>
    <i name="e_fr_energy">   -331.25941044 </i>
    <i name="e_wo_entrp">   -331.25372423 </i>
    <i name="e_0_energy">   -331.25751504 </i>
   </energy>
  </scstep>
  <scstep>
   <time name="dav">   25.70   25.74</time>
   <time name="total">   26.30   26.34</time>
   <energy>
    <i name="e_fr_energy">   -330.86036379 </i>
    <i name="e_wo_entrp">   -330.86000691 </i>
    <i name="e_0_energy">   -330.86024483 </i>
   </energy>
  </scstep>
  <scstep>
   <time name="dav">   27.35   27.39</time>
   <time name="total">   27.96   28.00</time>
   <energy>
    <i name="e_fr_energy">   -330.70827677 </i>
    <i name="e_wo_entrp">   -330.70137268 </i>
    <i name="e_0_energy">   -330.70597541 </i>
   </energy>
  </scstep>
  <scstep>
   <time name="dav">   28.15   28.20</time>
   <time name="total">   28.76   28.80</time>
   <energy>
    <i name="e_fr_energy">   -330.73126583 </i>
    <i name="e_wo_entrp">   -330.72863173 </i>
    <i name="e_0_energy">   -330.73038780 </i>
   </energy>
  </scstep>
  <scstep>
   <time name="dav">   26.42   26.46</time>
   <time name="total">   27.02   27.06</time>
   <energy>
    <i name="e_fr_energy">   -330.71394902 </i>
    <i name="e_wo_entrp">   -330.70819240 </i>
    <i name="e_0_energy">   -330.71203015 </i>
   </energy>
  </scstep>
  <scstep>
   <time name="dav">   25.67   25.70</time>
   <time name="total">   26.27   26.31</time>
   <energy>
    <i name="e_fr_energy">   -330.72100325 </i>
    <i name="e_wo_entrp">   -330.71482239 </i>
    <i name="e_0_energy">   -330.71894296 </i>
   </energy>
  </scstep>
  <scstep>
   <time name="dav">   26.25   26.29</time>
   <time name="total">   26.85   26.89</time>
   <energy>
    <i name="e_fr_energy">   -330.72646285 </i>
    <i name="e_wo_entrp">   -330.72124716 </i>
    <i name="e_0_energy">   -330.72472428 </i>
   </energy>
  </scstep>
  <scstep>
   <time name="dav">   26.66   26.70</time>
   <time name="total">   27.26   27.30</time>
   <energy>
    <i name="e_fr_energy">   -330.72763332 </i>
    <i name="e_wo_entrp">   -330.72183017 </i>
    <i name="e_0_energy">   -330.72569893 </i>
   </energy>
  </scstep>
  <scstep>
   <time name="dav">   25.95   26.02</time>
   <time name="total">   26.58   26.64</time>
   <energy>
    <i name="e_fr_energy">   -330.72744126 </i>
    <i name="e_wo_entrp">   -330.72173084 </i>
    <i name="e_0_energy">   -330.72553778 </i>
   </energy>
  </scstep>
  <scstep>
   <time name="dav">   25.35   25.41</time>
   <time name="total">   25.96   26.02</time>
   <energy>
    <i name="e_fr_energy">   -330.72759239 </i>
    <i name="e_wo_entrp">   -330.72191782 </i>
    <i name="e_0_energy">   -330.72570087 </i>
   </energy>
  </scstep>
  <scstep>
   <time name="dav">   23.18   23.23</time>
   <time name="total">   23.78   23.83</time>
   <energy>
    <i name="e_fr_energy">   -330.72760856 </i>
    <i name="e_wo_entrp">   -330.72195662 </i>
    <i name="e_0_energy">   -330.72572458 </i>
   </energy>
  </scstep>
  <scstep>
   <time name="dav">   19.60   19.65</time>
   <time name="total">   19.64   19.68</time>
   <energy>
    <i name="alphaZ">   1374.54570401 </i>
    <i name="ewald"> -11898.89191055 </i>
    <i name="hartreedc">  -2892.90673557 </i>
    <i name="XCdc">   -829.39414286 </i>
    <i name="pawpsdc">  22476.89725457 </i>
    <i name="pawaedc"> -20987.94953858 </i>
    <i name="eentropy">     -0.00566035 </i>
    <i name="bandstr">   -653.27980184 </i>
    <i name="atom">  13080.25727947 </i>
    <i name="e_fr_energy">   -330.72755171 </i>
    <i name="e_wo_entrp">   -330.72189135 </i>
    <i name="e_0_energy">   -330.72566492 </i>
   </energy>
  </scstep>
  <structure>
   <crystal>
    <varray name="basis" >
     <v>      -3.13402250      -3.13136828      -3.13535651 </v>
     <v>       1.55153726       1.57983162      -7.83706478 </v>
     <v>       7.81785714      -7.83612723      -1.54277262 </v>
    </varray>
    <i name="volume">    461.31072803 </i>
    <varray name="rec_basis" >
     <v>      -0.13840900      -0.12762630      -0.05312892 </v>
     <v>       0.04278692       0.06361624      -0.10630403 </v>
     <v>       0.06393537      -0.06378815      -0.00020115 </v>
    </varray>
   </crystal>
   <varray name="positions" >
    <v>       0.96372794       0.93338564       0.39869947 </v>
    <v>       0.63329713       0.26552542       0.40113570 </v>
    <v>       0.49850736       0.00231119      -0.00049478 </v>
    <v>      -0.00144146      -0.00194074      -0.00212771 </v>
    <v>       0.09796683       0.20535344       0.79901651 </v>
    <v>       0.03509447       0.06434464       0.60129325 </v>
    <v>       0.90128675       0.79872564       0.20173708 </v>
    <v>       0.80313317       0.59583801       0.39903391 </v>
    <v>       0.73344892       0.46615675       0.19967588 </v>
    <v>       0.66484997       0.33786020      -0.00079596 </v>
    <v>       0.37208937       0.73011704       0.59972087 </v>
    <v>       0.13286508       0.27054406       0.39821206 </v>
    <v>       0.83473803       0.66752743      -0.00147104 </v>
    <v>       0.56866173       0.13269056       0.19738259 </v>
    <v>       0.40342658       0.79572211       0.19764191 </v>
    <v>       0.43825849       0.86207304       0.79804567 </v>
    <v>       0.29916604       0.60209433       0.40232652 </v>
    <v>       0.86231896       0.73467764       0.60127801 </v>
    <v>       0.46556628       0.93198929       0.40360760 </v>
    <v>       0.16933675       0.33345029       0.00046606 </v>
    <v>       0.26523349       0.53920055       0.79967000 </v>
    <v>       0.20102319       0.39612684       0.59956568 </v>
    <v>       0.06494130       0.13820437       0.20344757 </v>
    <v>       0.76380387       0.52723894       0.80011723 </v>
    <v>       0.69658988       0.40558479       0.60232055 </v>
    <v>       0.59779327       0.20008393       0.79785493 </v>
    <v>       0.53382329       0.06884791       0.60168060 </v>
    <v>       0.33696153       0.66125980       0.00135932 </v>
    <v>       0.23019848       0.46834022       0.19960050 </v>
   </varray>
  </structure>
  <varray name="forces" >
   <v>       0.09096469       0.17989564       0.06235317 </v>
   <v>       0.03348674      -0.09555410       0.05506590 </v>
   <v>      -0.15622711       0.30255609       0.00881047 </v>
   <v>      -0.40591294       0.41903944       0.28846487 </v>
   <v>      -0.00634992       0.10199637      -0.04759612 </v>
   <v>       0.18429643      -0.43572589       0.28795809 </v>
   <v>      -0.01880122      -0.06783728       0.01132143 </v>
   <v>      -0.07448056      -0.10291053       0.07244218 </v>
   <v>      -0.08558692      -0.05059446       0.14267370 </v>
   <v>       0.00396732       0.04703801      -0.12115380 </v>
   <v>      -0.00335357      -0.16071977       0.05719736 </v>
   <v>       0.04085249       0.03366390      -0.10551254 </v>
   <v>      -0.45538615       0.22639141      -0.34646564 </v>
   <v>      -0.21593818       0.03062195       0.11402653 </v>
   <v>      -0.06586773      -0.06812511      -0.05153374 </v>
   <v>      -0.30753596      -0.12457423       0.11671505 </v>
   <v>       0.23501258      -0.23999020      -0.08393310 </v>
   <v>       0.36006033      -0.19290760      -0.11778084 </v>
   <v>       0.27509540      -0.26194368       0.10795546 </v>
   <v>      -0.09513330      -0.11481414      -0.07429291 </v>
   <v>       0.40419877       0.58276479      -0.52320267 </v>
   <v>      -0.02322590       0.04273211       0.20958427 </v>
   <v>       0.40899103      -0.14875087      -0.48414993 </v>
   <v>      -0.01406271      -0.05791808       0.17727389 </v>
   <v>       0.15364395       0.13638510      -0.14057472 </v>
   <v>      -0.14695852       0.06850820       0.16514478 </v>
   <v>       0.07232252      -0.17626818      -0.08537036 </v>
   <v>      -0.22072008       0.07160443       0.25255702 </v>
   <v>       0.03264852       0.05543668       0.05202220 </v>
  </varray>
  <varray name="stress" >
   <v>      87.29868391      -0.49379439       1.73247409 </v>
   <v>      -0.49379444      87.76905745      -1.29273926 </v>
   <v>       1.73247403      -1.29273926      89.52419419 </v>
  </varray>
  <energy>
   <i name="e_fr_energy">   -330.72755171 </i>
   <i name="e_wo_entrp">   -330.72566492 </i>
   <i name="e_0_energy">     -0.00566035 </i>
  </energy>
  <time name="totalsc">  408.46  409.24</time>
 </calculation>
 <calculation>
  <scstep>
   <time name="dav">   21.96   22.01</time>
   <time name="total">   22.56   22.62</time>
   <energy>
    <i name="alphaZ">   1342.49277721 </i>
    <i name="ewald"> -11790.79481202 </i>
    <i name="hartreedc">  -2884.91892558 </i>
    <i name="XCdc">   -832.35569953 </i>
    <i name="pawpsdc">  22477.11583343 </i>
    <i name="pawaedc"> -20988.17196748 </i>
    <i name="eentropy">     -0.00358193 </i>
    <i name="bandstr">   -734.99152136 </i>
    <i name="atom">  13080.25727947 </i>
    <i name="e_fr_energy">   -331.37061780 </i>
    <i name="e_wo_entrp">   -331.36703587 </i>
    <i name="e_0_energy">   -331.36942382 </i>
   </energy>
  </scstep>
  <scstep>
   <time name="dav">   28.25   28.32</time>
   <time name="total">   28.86   28.93</time>
   <energy>
    <i name="e_fr_energy">   -331.41344729 </i>
    <i name="e_wo_entrp">   -331.40637980 </i>
    <i name="e_0_energy">   -331.41109146 </i>
   </energy>
  </scstep>
  <scstep>
   <time name="dav">   25.62   25.68</time>
   <time name="total">   26.22   26.29</time>
   <energy>
    <i name="e_fr_energy">   -331.24043256 </i>
    <i name="e_wo_entrp">   -331.23699158 </i>
    <i name="e_0_energy">   -331.23928556 </i>
   </energy>
  </scstep>
  <scstep>
   <time name="dav">   26.81   26.88</time>
   <time name="total">   27.42   27.48</time>
   <energy>
    <i name="e_fr_energy">   -331.06439413 </i>
    <i name="e_wo_entrp">   -331.06154121 </i>
    <i name="e_0_energy">   -331.06344315 </i>
   </energy>
  </scstep>
  <scstep>
   <time name="dav">   25.21   25.28</time>
   <time name="total">   25.81   25.88</time>
   <energy>
    <i name="e_fr_energy">   -330.98724397 </i>
    <i name="e_wo_entrp">   -330.97911327 </i>
    <i name="e_0_energy">   -330.98453374 </i>
   </energy>
  </scstep>
  <scstep>
   <time name="dav">   25.93   25.99</time>
   <time name="total">   26.55   26.62</time>
   <energy>
    <i name="e_fr_energy">   -330.96170463 </i>
    <i name="e_wo_entrp">   -330.95670745 </i>
    <i name="e_0_energy">   -330.96003890 </i>
   </energy>
  </scstep>
  <scstep>
   <time name="dav">   27.00   27.07</time>
   <time name="total">   27.60   27.67</time>
   <energy>
    <i name="e_fr_energy">   -330.96413514 </i>
    <i name="e_wo_entrp">   -330.95692026 </i>
    <i name="e_0_energy">   -330.96173018 </i>
   </energy>
  </scstep>
  <scstep>
   <time name="dav">   25.17   25.23</time>
   <time name="total">   25.77   25.83</time>
   <energy>
    <i name="e_fr_energy">   -330.96118784 </i>
    <i name="e_wo_entrp">   -330.95492263 </i>
    <i name="e_0_energy">   -330.95909943 </i>
   </energy>
  </scstep>
  <scstep>
   <time name="dav">   25.11   25.18</time>
   <time name="total">   25.72   25.80</time>
   <energy>
    <i name="e_fr_energy">   -330.96191534 </i>
    <i name="e_wo_entrp">   -330.95581649 </i>
    <i name="e_0_energy">   -330.95988239 </i>
   </energy>
  </scstep>
  <scstep>
   <time name="dav">   25.27   25.33</time>
   <time name="total">   25.87   25.93</time>
   <energy>
    <i name="e_fr_energy">   -330.96350375 </i>
    <i name="e_wo_entrp">   -330.95719801 </i>
    <i name="e_0_energy">   -330.96140184 </i>
   </energy>
  </scstep>
  <scstep>
   <time name="dav">   25.59   25.66</time>
   <time name="total">   26.21   26.27</time>
   <energy>
    <i name="e_fr_energy">   -330.96334847 </i>
    <i name="e_wo_entrp">   -330.95706583 </i>
    <i name="e_0_energy">   -330.96125426 </i>
   </energy>
  </scstep>
  <scstep>
   <time name="dav">   25.37   25.43</time>
   <time name="total">   25.97   26.04</time>
   <energy>
    <i name="e_fr_energy">   -330.96330514 </i>
    <i name="e_wo_entrp">   -330.95709827 </i>
    <i name="e_0_energy">   -330.96123618 </i>
   </energy>
  </scstep>
  <scstep>
   <time name="dav">   20.20   20.25</time>
   <time name="total">   20.23   20.28</time>
   <energy>
    <i name="alphaZ">   1342.49277721 </i>
    <i name="ewald"> -11790.79481202 </i>
    <i name="hartreedc">  -2926.51703420 </i>
    <i name="XCdc">   -831.13407551 </i>
    <i name="pawpsdc">  21637.35947761 </i>
    <i name="pawaedc"> -20147.83127195 </i>
    <i name="eentropy">     -0.00625720 </i>
    <i name="bandstr">   -694.78938928 </i>
    <i name="atom">  13080.25727947 </i>
    <i name="e_fr_energy">   -330.96330587 </i>
    <i name="e_wo_entrp">   -330.95704867 </i>
    <i name="e_0_energy">   -330.96122013 </i>
   </energy>
  </scstep>
  <structure>
   <crystal>
    <varray name="basis" >
     <v>      -3.15833742      -3.15683611      -3.15909198 </v>
     <v>       1.57041615       1.58642030      -7.89697964 </v>
     <v>       7.88611522      -7.89644933      -1.56545860 </v>
    </varray>
    <i name="volume">    472.32483496 </i>
    <varray name="rec_basis" >
     <v>      -0.13728174      -0.12664604      -0.05274210 </v>
     <v>       0.04235160       0.06321330      -0.10550964 </v>
     <v>       0.06339095      -0.06330901      -0.00011201 </v>
    </varray>
   </crystal>
   <varray name="positions" >
    <v>       0.96502689       0.93336406       0.39927524 </v>
    <v>       0.63331345       0.26602811       0.40063397 </v>
    <v>       0.49916783       0.00129026      -0.00027753 </v>
    <v>      -0.00080566      -0.00108002      -0.00118435 </v>
    <v>       0.09886690       0.20298859       0.79944767 </v>
    <v>       0.03431568       0.06536920       0.60072260 </v>
    <v>       0.90071829       0.79928644       0.20096919 </v>
    <v>       0.80174588       0.59767934       0.39946458 </v>
    <v>       0.73339749       0.46638262       0.19981973 </v>
    <v>       0.66565419       0.33586042      -0.00044716 </v>
    <v>       0.36969018       0.73153969       0.59984657 </v>
    <v>       0.13307224       0.26883300       0.39900031 </v>
    <v>       0.83411624       0.66714940      -0.00082077 </v>
    <v>       0.56777782       0.13297883       0.19854138 </v>
    <v>       0.40190875       0.79761679       0.19868873 </v>
    <v>       0.43607805       0.86410687       0.79891393 </v>
    <v>       0.29953669       0.60116511       0.40129522 </v>
    <v>       0.86424278       0.73408100       0.60071163 </v>
    <v>       0.46605452       0.93257777       0.40201208 </v>
    <v>       0.16815620       0.33339827       0.00025950 </v>
    <v>       0.26586872       0.53660774       0.79981147 </v>
    <v>       0.20056940       0.39783943       0.59976092 </v>
    <v>       0.06570753       0.13604615       0.20191796 </v>
    <v>       0.76506835       0.52993188       0.80007043 </v>
    <v>       0.69810077       0.40311257       0.60128930 </v>
    <v>       0.59876804       0.20004974       0.79880440 </v>
    <v>       0.53360811       0.06788143       0.60093501 </v>
    <v>       0.33535625       0.66364792       0.00076175 </v>
    <v>       0.23158509       0.46760073       0.19977621 </v>
   </varray>
  </structure>
  <varray name="forces" >
   <v>       0.02936458       0.30228465       0.14492039 </v>
   <v>       0.09270056      -0.15289379       0.10480334 </v>
   <v>      -0.04631121       0.27796591      -0.12129542 </v>
   <v>      -0.36382514       0.40986887       0.38506130 </v>
   <v>       0.06977807       0.29105177      -0.36513340 </v>
   <v>       0.11349270      -0.42962333       0.26257206 </v>
   <v>       0.06654300      -0.23625561       0.04171047 </v>
   <v>      -0.28220447      -0.14391526       0.28759586 </v>
   <v>      -0.08631530      -0.01279779       0.11648961 </v>
   <v>       0.07733628       0.23108016      -0.37234707 </v>
   <v>      -0.25564554      -0.30191032       0.13353277 </v>
   <v>      -0.04500132       0.24695917      -0.32265370 </v>
   <v>      -0.40449918       0.19235468      -0.28893764 </v>
   <v>      -0.37862221       0.14299267       0.08793662 </v>
   <v>      -0.39811631      -0.03297216       0.22925274 </v>
   <v>      -0.53727388      -0.13643697       0.29708810 </v>
   <v>       0.36210353      -0.25494915      -0.21651550 </v>
   <v>       0.45513657      -0.04139849      -0.04910603 </v>
   <v>       0.44327782      -0.41319526       0.13840404 </v>
   <v>      -0.09616135      -0.18250060      -0.14003392 </v>
   <v>       0.32135176       0.46652309      -0.69575007 </v>
   <v>      -0.14183474      -0.03542784       0.39512497 </v>
   <v>       0.63176658      -0.21768524      -0.64478554 </v>
   <v>      -0.01812146      -0.04125654       0.69780973 </v>
   <v>       0.48738474       0.07927224      -0.47077737 </v>
   <v>      -0.18953901       0.28882304       0.18794756 </v>
   <v>       0.19650357      -0.21397272      -0.26635821 </v>
   <v>      -0.21693764      -0.27522531       0.44252957 </v>
   <v>       0.11366902       0.19324012       0.00091473 </v>
  </varray>
  <varray name="stress" >
   <v>      28.75741584      -0.07443335       2.88652784 </v>
   <v>      -0.07443329      31.41790623      -1.96866364 </v>
   <v>       2.88652790      -1.96866354      31.96146156 </v>
  </varray>
  <energy>
   <i name="e_fr_energy">   -330.96330587 </i>
   <i name="e_wo_entrp">   -330.96122013 </i>
   <i name="e_0_energy">     -0.00625720 </i>
  </energy>
  <time name="totalsc">  353.30  354.28</time>
 </calculation>
 <calculation>
  <scstep>
   <time name="dav">   18.53   18.58</time>
   <time name="total">   19.13   19.20</time>
   <energy>
    <i name="alphaZ">   1324.62849485 </i>
    <i name="ewald"> -11775.36305756 </i>
    <i name="hartreedc">  -2876.83140503 </i>
    <i name="XCdc">   -832.99479141 </i>
    <i name="pawpsdc">  21637.43722956 </i>
    <i name="pawaedc"> -20148.00341129 </i>
    <i name="eentropy">     -0.00112188 </i>
    <i name="bandstr">   -740.10795503 </i>
    <i name="atom">  13080.25727947 </i>
    <i name="e_fr_energy">   -330.97873832 </i>
    <i name="e_wo_entrp">   -330.97761644 </i>
    <i name="e_0_energy">   -330.97836436 </i>
   </energy>
  </scstep>
  <scstep>
   <time name="dav">   26.74   26.79</time>
   <time name="total">   27.34   27.40</time>
   <energy>
    <i name="e_fr_energy">   -331.48732784 </i>
    <i name="e_wo_entrp">   -331.47653834 </i>
    <i name="e_0_energy">   -331.48373134 </i>
   </energy>
  </scstep>
  <scstep>
   <time name="dav">   25.30   25.34</time>
   <time name="total">   25.91   25.96</time>
   <energy>
    <i name="e_fr_energy">   -331.47034491 </i>
    <i name="e_wo_entrp">   -331.47029768 </i>
    <i name="e_0_energy">   -331.47032916 </i>
   </energy>
  </scstep>
  <scstep>
   <time name="dav">   25.77   25.81</time>
   <time name="total">   26.38   26.43</time>
   <energy>
    <i name="e_fr_energy">   -331.36486908 </i>
    <i name="e_wo_entrp">   -331.35974414 </i>
    <i name="e_0_energy">   -331.36316076 </i>
   </energy>
  </scstep>
  <scstep>
   <time name="dav">   25.77   25.81</time>
   <time name="total">   26.37   26.41</time>
   <energy>
    <i name="e_fr_energy">   -331.34862126 </i>
    <i name="e_wo_entrp">   -331.34269750 </i>
    <i name="e_0_energy">   -331.34664667 </i>
   </energy>
  </scstep>
  <scstep>
   <time name="dav">   26.28   26.32</time>
   <time name="total">   26.88   26.93</time>
   <energy>
    <i name="e_fr_energy">   -331.33262025 </i>
    <i name="e_wo_entrp">   -331.32639369 </i>
    <i name="e_0_energy">   -331.33054473 </i>
   </energy>
  </scstep>
  <scstep>
   <time name="dav">   27.61   27.65</time>
   <time name="total">   28.23   28.28</time>
   <energy>
    <i name="e_fr_energy">   -331.32810851 </i>
    <i name="e_wo_entrp">   -331.32252747 </i>
    <i name="e_0_energy">   -331.32624816 </i>
   </energy>
  </scstep>
  <scstep>
   <time name="dav">   26.90   26.94</time>
   <time name="total">   27.50   27.54</time>
   <energy>
    <i name="e_fr_energy">   -331.32671535 </i>
    <i name="e_wo_entrp">   -331.32042879 </i>
    <i name="e_0_energy">   -331.32461983 </i>
   </energy>
  </scstep>
  <scstep>
   <time name="dav">   24.05   24.09</time>
   <time name="total">   24.65   24.70</time>
   <energy>
    <i name="e_fr_energy">   -331.32603473 </i>
    <i name="e_wo_entrp">   -331.32045862 </i>
    <i name="e_0_energy">   -331.32417603 </i>
   </energy>
  </scstep>
  <scstep>
   <time name="dav">   23.84   23.88</time>
   <time name="total">   24.45   24.49</time>
   <energy>
    <i name="e_fr_energy">   -331.32619631 </i>
    <i name="e_wo_entrp">   -331.32033400 </i>
    <i name="e_0_energy">   -331.32424221 </i>
   </energy>
  </scstep>
  <scstep>
   <time name="dav">   24.54   24.57</time>
   <time name="total">   25.14   25.18</time>
   <energy>
    <i name="e_fr_energy">   -331.32650871 </i>
    <i name="e_wo_entrp">   -331.32103168 </i>
    <i name="e_0_energy">   -331.32468303 </i>
   </energy>
  </scstep>
  <scstep>
   <time name="dav">   22.73   22.77</time>
   <time name="total">   23.34   23.37</time>
   <energy>
    <i name="e_fr_energy">   -331.32617470 </i>
    <i name="e_wo_entrp">   -331.32045308 </i>
    <i name="e_0_energy">   -331.32426749 </i>
   </energy>
  </scstep>
  <scstep>
   <time name="dav">   15.56   15.58</time>
   <time name="total">   15.60   15.62</time>
   <energy>
    <i name="alphaZ">   1324.62849485 </i>
    <i name="ewald"> -11775.36305756 </i>
    <i name="hartreedc">  -2898.61331681 </i>
    <i name="XCdc">   -832.26137614 </i>
    <i name="pawpsdc">  21229.98994061 </i>
    <i name="pawaedc"> -19741.16860099 </i>
    <i name="eentropy">     -0.00567380 </i>
    <i name="bandstr">   -718.78983244 </i>
    <i name="atom">  13080.25727947 </i>
    <i name="e_fr_energy">   -331.32614281 </i>
    <i name="e_wo_entrp">   -331.32046901 </i>
    <i name="e_0_energy">   -331.32425154 </i>
   </energy>
  </scstep>
  <structure>
   <crystal>
    <varray name="basis" >
     <v>      -3.17419217      -3.16821072      -3.17749044 </v>
     <v>       1.55810751       1.60778276      -7.93841931 </v>
     <v>       7.90518051      -7.93499417      -1.54397254 </v>
    </varray>
    <i name="volume">    478.69472980 </i>
    <varray name="rec_basis" >
     <v>      -0.13677544      -0.12606983      -0.05237866 </v>
     <v>       0.04245240       0.06271116      -0.10493634 </v>
     <v>       0.06321210      -0.06298156      -0.00034886 </v>
    </varray>
   </crystal>
   <varray name="positions" >
    <v>       0.96128415       0.93361346       0.39783046 </v>
    <v>       0.63334313       0.26469052       0.40191447 </v>
    <v>       0.49739526       0.00375396      -0.00144012 </v>
    <v>      -0.00254220      -0.00342744      -0.00446367 </v>
    <v>       0.09660172       0.20843445       0.79831893 </v>
    <v>       0.03634047       0.06194697       0.60291433 </v>
    <v>       0.90221201       0.79789180       0.20272523 </v>
    <v>       0.80523285       0.59323037       0.39856712 </v>
    <v>       0.73378110       0.46537663       0.19944335 </v>
    <v>       0.66380834       0.34075338      -0.00128946 </v>
    <v>       0.37545724       0.72791306       0.59982600 </v>
    <v>       0.13247042       0.27296908       0.39725069 </v>
    <v>       0.83689829       0.66872337      -0.00325727 </v>
    <v>       0.57011370       0.13192187       0.19571021 </v>
    <v>       0.40576783       0.79346945       0.19642748 </v>
    <v>       0.44198478       0.85893111       0.79676422 </v>
    <v>       0.29883333       0.60323834       0.40424122 </v>
    <v>       0.85955267       0.73575010       0.60276988 </v>
    <v>       0.46477881       0.93090937       0.40629519 </v>
    <v>       0.17148253       0.33342312       0.00074556 </v>
    <v>       0.26218594       0.54481842       0.79924097 </v>
    <v>       0.20124468       0.39360693       0.59923164 </v>
    <v>       0.06369173       0.14217489       0.20610527 </v>
    <v>       0.76228526       0.52334256       0.80018961 </v>
    <v>       0.69401311       0.40936363       0.60365289 </v>
    <v>       0.59670877       0.19966894       0.79634225 </v>
    <v>       0.53448852       0.07003631       0.60296547 </v>
    <v>       0.33908033       0.65758405       0.00163243 </v>
    <v>       0.22817190       0.46922464       0.19934566 </v>
   </varray>
  </structure>
  <varray name="forces" >
   <v>       0.08656393      -0.01160229       0.03984715 </v>
   <v>       0.01408651      -0.03322620      -0.04364279 </v>
   <v>      -0.21045232       0.25536932       0.20286105 </v>
   <v>      -0.25019271       0.15466339       0.13966163 </v>
   <v>      -0.09181833      -0.10177001       0.23375213 </v>
   <v>       0.12287680      -0.18118811       0.09090985 </v>
   <v>      -0.18399379       0.11752738       0.04287680 </v>
   <v>       0.05243045      -0.04340779      -0.07037656 </v>
   <v>       0.00406997       0.02565751       0.01477661 </v>
   <v>      -0.10180272      -0.09529466       0.16374455 </v>
   <v>       0.11649831       0.00272776      -0.02980822 </v>
   <v>       0.17704193      -0.13559936       0.05953507 </v>
   <v>      -0.15021265       0.08769667      -0.12911435 </v>
   <v>      -0.00395438      -0.03984404       0.03662322 </v>
   <v>       0.12604567      -0.10768008      -0.16215358 </v>
   <v>      -0.02013628      -0.16104587      -0.10998639 </v>
   <v>      -0.11830053      -0.04265276       0.03196727 </v>
   <v>       0.12499266      -0.19202918      -0.06036204 </v>
   <v>       0.05920723      -0.05040639       0.05556525 </v>
   <v>      -0.03566283       0.00978127      -0.07829744 </v>
   <v>       0.29395724       0.39252418      -0.15357293 </v>
   <v>       0.02463317       0.13258634       0.05884582 </v>
   <v>       0.13678413      -0.04635511      -0.24029096 </v>
   <v>       0.10731143      -0.05024197      -0.26108159 </v>
   <v>      -0.16232896       0.12248886       0.28194108 </v>
   <v>      -0.01810144       0.03276196      -0.04949530 </v>
   <v>       0.01790481      -0.07161626       0.06290698 </v>
   <v>      -0.09238504       0.15823002      -0.12042052 </v>
   <v>      -0.02506225      -0.12805455      -0.00721180 </v>
  </varray>
  <varray name="stress" >
   <v>       4.92020572      -0.02373121       1.21680413 </v>
   <v>      -0.02373122       2.97952080       0.06053740 </v>
   <v>       1.21680410       0.06053731       4.86150174 </v>
  </varray>
  <energy>
   <i name="e_fr_energy">   -331.32614281 </i>
   <i name="e_wo_entrp">   -331.32425154 </i>
   <i name="e_0_energy">     -0.00567380 </i>
  </energy>
  <time name="totalsc">  338.52  339.19</time>
 </calculation>
 <calculation>
  <scstep>
   <time name="dav">   19.37   19.66</time>
   <time name="total">   19.97   20.29</time>
   <energy>
    <i name="alphaZ">   1324.21095718 </i>
    <i name="ewald"> -11774.89439690 </i>
    <i name="hartreedc">  -2897.46567858 </i>
    <i name="XCdc">   -832.30747832 </i>
    <i name="pawpsdc">  21229.97009861 </i>
    <i name="pawaedc"> -19741.17945933 </i>
    <i name="eentropy">     -0.00554811 </i>
    <i name="bandstr">   -719.91194432 </i>
    <i name="atom">  13080.25727947 </i>
    <i name="e_fr_energy">   -331.32617030 </i>
    <i name="e_wo_entrp">   -331.32062219 </i>
    <i name="e_0_energy">   -331.32432093 </i>
   </energy>
  </scstep>
  <scstep>
   <time name="dav">   25.73   25.77</time>
   <time name="total">   26.33   26.37</time>
   <energy>
    <i name="e_fr_energy">   -331.32641658 </i>
    <i name="e_wo_entrp">   -331.32067952 </i>
    <i name="e_0_energy">   -331.32450422 </i>
   </energy>
  </scstep>
  <scstep>
   <time name="dav">   20.84   20.87</time>
   <time name="total">   21.46   21.50</time>
   <energy>
    <i name="e_fr_energy">   -331.32641088 </i>
    <i name="e_wo_entrp">   -331.32084743 </i>
    <i name="e_0_energy">   -331.32455640 </i>
   </energy>
  </scstep>
  <scstep>
   <time name="dav">   16.59   16.61</time>
   <time name="total">   16.62   16.64</time>
   <energy>
    <i name="alphaZ">   1324.21095718 </i>
    <i name="ewald"> -11774.89439690 </i>
    <i name="hartreedc">  -2897.95134206 </i>
    <i name="XCdc">   -832.29241002 </i>
    <i name="pawpsdc">  21224.18756671 </i>
    <i name="pawaedc"> -19735.42285247 </i>
    <i name="eentropy">     -0.00565360 </i>
    <i name="bandstr">   -719.41550708 </i>
    <i name="atom">  13080.25727947 </i>
    <i name="e_fr_energy">   -331.32635877 </i>
    <i name="e_wo_entrp">   -331.32070516 </i>
    <i name="e_0_energy">   -331.32447423 </i>
   </energy>
  </scstep>
  <structure>
   <crystal>
    <varray name="basis" >
     <v>      -3.17456640      -3.16847920      -3.17792472 </v>
     <v>       1.55781697       1.60828700      -7.93939745 </v>
     <v>       7.90563052      -7.93590399      -1.54346538 </v>
    </varray>
    <i name="volume">    478.84566729 </i>
    <varray name="rec_basis" >
     <v>      -0.13676355      -0.12605629      -0.05237013 </v>
     <v>       0.04245474       0.06269939      -0.10492291 </v>
     <v>       0.06320790      -0.06297388      -0.00035440 </v>
    </varray>
   </crystal>
   <varray name="positions" >
    <v>       0.96119624       0.93361923       0.39779647 </v>
    <v>       0.63334383       0.26465922       0.40194452 </v>
    <v>       0.49735357       0.00381173      -0.00146735 </v>
    <v>      -0.00258285      -0.00348284      -0.00454092 </v>
    <v>       0.09654838       0.20856226       0.79829264 </v>
    <v>       0.03638808       0.06186678       0.60296572 </v>
    <v>       0.90224710       0.79785919       0.20276647 </v>
    <v>       0.80531492       0.59312578       0.39854581 </v>
    <v>       0.73379016       0.46535297       0.19943445 </v>
    <v>       0.66376485       0.34086822      -0.00130904 </v>
    <v>       0.37559284       0.72782782       0.59982537 </v>
    <v>       0.13245622       0.27306606       0.39720974 </v>
    <v>       0.83696368       0.66876007      -0.00331448 </v>
    <v>       0.57016869       0.13189676       0.19564359 </v>
    <v>       0.40585868       0.79337181       0.19637412 </v>
    <v>       0.44212377       0.85880930       0.79671344 </v>
    <v>       0.29881666       0.60328730       0.40431060 </v>
    <v>       0.85944237       0.73578955       0.60281833 </v>
    <v>       0.46474876       0.93087060       0.40639583 </v>
    <v>       0.17156067       0.33342370       0.00075701 </v>
    <v>       0.26209920       0.54501121       0.79922793 </v>
    <v>       0.20126068       0.39350749       0.59921898 </v>
    <v>       0.06364409       0.14231922       0.20620404 </v>
    <v>       0.76222004       0.52318788       0.80019207 </v>
    <v>       0.69391683       0.40951069       0.60370876 </v>
    <v>       0.59666046       0.19965980       0.79628431 </v>
    <v>       0.53450909       0.07008708       0.60301334 </v>
    <v>       0.33916798       0.65744168       0.00165263 </v>
    <v>       0.22809167       0.46926278       0.19933559 </v>
   </varray>
  </structure>
  <varray name="forces" >
   <v>       0.08987717      -0.02052246       0.03750257 </v>
   <v>       0.01040184      -0.03127398      -0.04675916 </v>
   <v>      -0.21806764       0.25020959       0.20945875 </v>
   <v>      -0.24801542       0.15175675       0.13735831 </v>
   <v>      -0.09813493      -0.11179351       0.25331111 </v>
   <v>       0.12472520      -0.17825699       0.08869121 </v>
   <v>      -0.18907980       0.12587156       0.04193615 </v>
   <v>       0.05810877      -0.04338238      -0.07625858 </v>
   <v>       0.00679192       0.02706615       0.01067855 </v>
   <v>      -0.10513837      -0.10505724       0.17873278 </v>
   <v>       0.12727765       0.00971618      -0.03676799 </v>
   <v>       0.18544008      -0.14434707       0.06704812 </v>
   <v>      -0.14524331       0.08692224      -0.12543894 </v>
   <v>      -0.00028737      -0.04213676       0.03112545 </v>
   <v>       0.13243222      -0.11021800      -0.16551593 </v>
   <v>      -0.00936972      -0.16149983      -0.12413299 </v>
   <v>      -0.13024472      -0.02485117       0.04317156 </v>
   <v>       0.11943524      -0.19365909      -0.06363625 </v>
   <v>       0.05499651      -0.04309404       0.05247863 </v>
   <v>      -0.03099534       0.01232762      -0.07608332 </v>
   <v>       0.29436984       0.39394243      -0.14406766 </v>
   <v>       0.02530995       0.13814229       0.05610919 </v>
   <v>       0.12654675      -0.04158963      -0.23487490 </v>
   <v>       0.11181009      -0.05042337      -0.28570879 </v>
   <v>      -0.17853925       0.12258288       0.30184732 </v>
   <v>      -0.01518432       0.02530380      -0.05488272 </v>
   <v>       0.01577175      -0.07207626       0.06931945 </v>
   <v>      -0.08684843       0.16693439      -0.13757857 </v>
   <v>      -0.02814637      -0.13659408      -0.00706334 </v>
  </varray>
  <varray name="stress" >
   <v>       4.89062087      -0.03618563       1.28808889 </v>
   <v>      -0.03618564       2.81968633       0.06533751 </v>
   <v>       1.28808882       0.06533750       4.80230503 </v>
  </varray>
  <energy>
   <i name="e_fr_energy">   -331.32635877 </i>
   <i name="e_wo_entrp">   -331.32447423 </i>
   <i name="e_0_energy">     -0.00565360 </i>
  </energy>
  <time name="totalsc">  101.91  102.36</time>
 </calculation>
 <calculation>
  <scstep>
   <time name="dav">   18.34   18.37</time>
   <time name="total">   18.94   18.98</time>
   <energy>
    <i name="alphaZ">   1316.27387163 </i>
    <i name="ewald"> -11751.34055209 </i>
    <i name="hartreedc">  -2892.59079624 </i>
    <i name="XCdc">   -833.07392773 </i>
    <i name="pawpsdc">  21223.25711815 </i>
    <i name="pawaedc"> -19734.49218098 </i>
    <i name="eentropy">     -0.00359561 </i>
    <i name="bandstr">   -739.63958862 </i>
    <i name="atom">  13080.25727947 </i>
    <i name="e_fr_energy">   -331.35237202 </i>
    <i name="e_wo_entrp">   -331.34877642 </i>
    <i name="e_0_energy">   -331.35117349 </i>
   </energy>
  </scstep>
  <scstep>
   <time name="dav">   24.78   24.82</time>
   <time name="total">   25.39   25.43</time>
   <energy>
    <i name="e_fr_energy">   -331.40234467 </i>
    <i name="e_wo_entrp">   -331.39375282 </i>
    <i name="e_0_energy">   -331.39948072 </i>
   </energy>
  </scstep>
  <scstep>
   <time name="dav">   25.02   25.06</time>
   <time name="total">   25.65   25.68</time>
   <energy>
    <i name="e_fr_energy">   -331.39340241 </i>
    <i name="e_wo_entrp">   -331.39030470 </i>
    <i name="e_0_energy">   -331.39236984 </i>
   </energy>
  </scstep>
  <scstep>
   <time name="dav">   25.80   25.84</time>
   <time name="total">   26.40   26.44</time>
   <energy>
    <i name="e_fr_energy">   -331.38032608 </i>
    <i name="e_wo_entrp">   -331.37383021 </i>
    <i name="e_0_energy">   -331.37816079 </i>
   </energy>
  </scstep>
  <scstep>
   <time name="dav">   25.44   25.47</time>
   <time name="total">   26.04   26.08</time>
   <energy>
    <i name="e_fr_energy">   -331.37130853 </i>
    <i name="e_wo_entrp">   -331.36561031 </i>
    <i name="e_0_energy">   -331.36940912 </i>
   </energy>
  </scstep>
  <scstep>
   <time name="dav">   28.19   28.23</time>
   <time name="total">   28.79   28.83</time>
   <energy>
    <i name="e_fr_energy">   -331.36995572 </i>
    <i name="e_wo_entrp">   -331.36420117 </i>
    <i name="e_0_energy">   -331.36803754 </i>
   </energy>
  </scstep>
  <scstep>
   <time name="dav">   26.29   26.33</time>
   <time name="total">   26.89   26.93</time>
   <energy>
    <i name="e_fr_energy">   -331.36985650 </i>
    <i name="e_wo_entrp">   -331.36372149 </i>
    <i name="e_0_energy">   -331.36781150 </i>
   </energy>
  </scstep>
  <scstep>
   <time name="dav">   22.99   23.03</time>
   <time name="total">   23.60   23.64</time>
   <energy>
    <i name="e_fr_energy">   -331.36981569 </i>
    <i name="e_wo_entrp">   -331.36393532 </i>
    <i name="e_0_energy">   -331.36785557 </i>
   </energy>
  </scstep>
  <scstep>
   <time name="dav">   20.23   20.27</time>
   <time name="total">   20.27   20.31</time>
   <energy>
    <i name="alphaZ">   1316.27387163 </i>
    <i name="ewald"> -11751.34055209 </i>
    <i name="hartreedc">  -2903.55429301 </i>
    <i name="XCdc">   -832.74540095 </i>
    <i name="pawpsdc">  21015.67294909 </i>
    <i name="pawaedc"> -19526.37492368 </i>
    <i name="eentropy">     -0.00586793 </i>
    <i name="bandstr">   -729.55290425 </i>
    <i name="atom">  13080.25727947 </i>
    <i name="e_fr_energy">   -331.36984173 </i>
    <i name="e_wo_entrp">   -331.36397380 </i>
    <i name="e_0_energy">   -331.36788575 </i>
   </energy>
  </scstep>
  <structure>
   <crystal>
    <varray name="basis" >
     <v>      -3.18383220      -3.17286078      -3.18727432 </v>
     <v>       1.55631291       1.61059212      -7.95679180 </v>
     <v>       7.92293428      -7.94718547      -1.54193523 </v>
    </varray>
    <i name="volume">    481.73308997 </i>
    <varray name="rec_basis" >
     <v>      -0.13641896      -0.12588175      -0.05216358 </v>
     <v>       0.04242498       0.06261108      -0.10470710 </v>
     <v>       0.06306229      -0.06288438      -0.00039418 </v>
    </varray>
   </crystal>
   <varray name="positions" >
    <v>       0.96059355       0.93356266       0.39807118 </v>
    <v>       0.63356442       0.26477843       0.40209099 </v>
    <v>       0.49675120       0.00318029      -0.00280478 </v>
    <v>      -0.00228652      -0.00421995      -0.00573567 </v>
    <v>       0.09712664       0.20701665       0.79829994 </v>
    <v>       0.03646877       0.06111595       0.60386050 </v>
    <v>       0.90262657       0.79762648       0.20192647 </v>
    <v>       0.80546250       0.59336611       0.39880958 </v>
    <v>       0.73358216       0.46536804       0.19936912 </v>
    <v>       0.66453047       0.33966177      -0.00133235 </v>
    <v>       0.37498645       0.72818108       0.60015432 </v>
    <v>       0.13196972       0.27279769       0.39808963 </v>
[...]
       <r>    4.6353    1.0000 </r>
       <r>    4.6655    1.0000 </r>
       <r>    4.7096    1.0000 </r>
       <r>    4.7725    1.0000 </r>
       <r>    4.7854    1.0000 </r>
       <r>    4.8650    1.0000 </r>
       <r>    4.9102    1.0000 </r>
       <r>    4.9591    1.0000 </r>
       <r>    5.0338    1.0000 </r>
       <r>    5.1213    1.0000 </r>
       <r>    5.1488    1.0000 </r>
       <r>    5.1971    1.0000 </r>
       <r>    5.2837    1.0000 </r>
       <r>    5.3355    1.0000 </r>
       <r>    5.3607    1.0000 </r>
       <r>    5.4552    1.0000 </r>
       <r>    5.4918    1.0000 </r>
       <r>    5.5622    1.0000 </r>
       <r>    5.6225    1.0000 </r>
       <r>    5.6286    1.0000 </r>
       <r>    5.7330    1.0000 </r>
       <r>    5.7988    1.0000 </r>
       <r>    5.8883    1.0000 </r>
       <r>    5.9188    1.0000 </r>
       <r>    5.9698    1.0000 </r>
       <r>    5.9989    1.0000 </r>
       <r>    6.0618    1.0000 </r>
       <r>    6.0882    1.0000 </r>
       <r>    6.1725    1.0001 </r>
       <r>    6.2338    1.0005 </r>
       <r>    6.2589    1.0009 </r>
       <r>    6.3314    1.0043 </r>
       <r>    6.3486    1.0058 </r>
       <r>    6.3698    1.0083 </r>
       <r>    6.4027    1.0135 </r>
       <r>    6.4576    1.0253 </r>
       <r>    6.5196    1.0354 </r>
       <r>    6.5605    1.0285 </r>
       <r>    6.6339    0.9487 </r>
       <r>    6.7298    0.6577 </r>
       <r>    6.8288    0.2547 </r>
       <r>    6.9440   -0.0080 </r>
       <r>    6.9912   -0.0334 </r>
       <r>    7.1818   -0.0063 </r>
       <r>    7.2279   -0.0027 </r>
       <r>    7.3776   -0.0001 </r>
       <r>    7.4945   -0.0000 </r>
       <r>    7.5759   -0.0000 </r>
       <r>    7.7976   -0.0000 </r>
       <r>    7.9334   -0.0000 </r>
       <r>    8.0341   -0.0000 </r>
       <r>    8.0817   -0.0000 </r>
       <r>    8.2070   -0.0000 </r>
       <r>    8.3555   -0.0000 </r>
       <r>    8.6485   -0.0000 </r>
       <r>    8.7034   -0.0000 </r>
       <r>    8.7711   -0.0000 </r>
       <r>    8.8373   -0.0000 </r>
       <r>    8.8989   -0.0000 </r>
       <r>    8.9498   -0.0000 </r>
       <r>    9.0519   -0.0000 </r>
      </set>
     </set>
    </set>
   </array>
  </eigenvalues>
  <separator name="orbital magnetization" >
   <v name="MAGDIPOLOUT">      0.00000000      0.00000000      0.00000000</v>
  </separator>
  <dos>
   <i name="efermi">      6.76777727 </i>
   <total>
    <array>
     <dimension dim="1">gridpoints</dimension>
     <dimension dim="2">spin</dimension>
     <field>energy</field>
     <field>total</field>
     <field>integrated</field>
     <set>
      <set comment="spin 1">
       <r>   -50.2925     0.0000     0.0000 </r>
       <r>   -50.0846     0.0000     0.0000 </r>
       <r>   -49.8767     0.0000     0.0000 </r>
       <r>   -49.6688     0.0000     0.0000 </r>
       <r>   -49.4609     0.0000     0.0000 </r>
       <r>   -49.2530    -0.0000    -0.0000 </r>
       <r>   -49.0451    -0.0000    -0.0000 </r>
       <r>   -48.8372    -0.0000    -0.0000 </r>
       <r>   -48.6293    -0.0000    -0.0000 </r>
       <r>   -48.4214    -0.0000    -0.0000 </r>
       <r>   -48.2135    -0.0000    -0.0000 </r>
       <r>   -48.0056    -0.0036    -0.0007 </r>
       <r>   -47.7977    -0.2232    -0.0471 </r>
       <r>   -47.5898     0.2563     0.0061 </r>
       <r>   -47.3819    11.8200     2.4635 </r>
       <r>   -47.1740    15.3850     5.6620 </r>
       <r>   -46.9661    19.9776     9.8153 </r>
       <r>   -46.7582    10.7915    12.0588 </r>
       <r>   -46.5503    -0.1031    12.0374 </r>
       <r>   -46.3424    -0.1771    12.0006 </r>
       <r>   -46.1345    -0.0027    12.0000 </r>
       <r>   -45.9266    -0.0000    12.0000 </r>
       <r>   -45.7187    -0.0000    12.0000 </r>
       <r>   -45.5108    -0.0000    12.0000 </r>
       <r>   -45.3029     0.0000    12.0000 </r>
       <r>   -45.0950     0.0000    12.0000 </r>
       <r>   -44.8871     0.0000    12.0000 </r>
       <r>   -44.6792     0.0000    12.0000 </r>
       <r>   -44.4713     0.0000    12.0000 </r>
       <r>   -44.2634     0.0000    12.0000 </r>
       <r>   -44.0555     0.0000    12.0000 </r>
       <r>   -43.8476     0.0000    12.0000 </r>
       <r>   -43.6397     0.0000    12.0000 </r>
       <r>   -43.4318     0.0000    12.0000 </r>
       <r>   -43.2239     0.0000    12.0000 </r>
       <r>   -43.0160     0.0000    12.0000 </r>
       <r>   -42.8081     0.0000    12.0000 </r>
       <r>   -42.6003     0.0000    12.0000 </r>
       <r>   -42.3924     0.0000    12.0000 </r>
       <r>   -42.1845     0.0000    12.0000 </r>
       <r>   -41.9766     0.0000    12.0000 </r>
       <r>   -41.7687     0.0000    12.0000 </r>
       <r>   -41.5608     0.0000    12.0000 </r>
       <r>   -41.3529     0.0000    12.0000 </r>
       <r>   -41.1450     0.0000    12.0000 </r>
       <r>   -40.9371     0.0000    12.0000 </r>
       <r>   -40.7292     0.0000    12.0000 </r>
       <r>   -40.5213     0.0000    12.0000 </r>
       <r>   -40.3134     0.0000    12.0000 </r>
       <r>   -40.1055     0.0000    12.0000 </r>
       <r>   -39.8976     0.0000    12.0000 </r>
       <r>   -39.6897     0.0000    12.0000 </r>
       <r>   -39.4818     0.0000    12.0000 </r>
       <r>   -39.2739     0.0000    12.0000 </r>
       <r>   -39.0660     0.0000    12.0000 </r>
       <r>   -38.8581     0.0000    12.0000 </r>
       <r>   -38.6502     0.0000    12.0000 </r>
       <r>   -38.4423     0.0000    12.0000 </r>
       <r>   -38.2344     0.0000    12.0000 </r>
       <r>   -38.0265     0.0000    12.0000 </r>
       <r>   -37.8186     0.0000    12.0000 </r>
       <r>   -37.6107     0.0000    12.0000 </r>
       <r>   -37.4028     0.0000    12.0000 </r>
       <r>   -37.1949     0.0000    12.0000 </r>
       <r>   -36.9870     0.0000    12.0000 </r>
       <r>   -36.7791     0.0000    12.0000 </r>
       <r>   -36.5712     0.0000    12.0000 </r>
       <r>   -36.3633     0.0000    12.0000 </r>
       <r>   -36.1554     0.0000    12.0000 </r>
       <r>   -35.9475     0.0000    12.0000 </r>
       <r>   -35.7396     0.0000    12.0000 </r>
       <r>   -35.5317     0.0000    12.0000 </r>
       <r>   -35.3238     0.0000    12.0000 </r>
       <r>   -35.1159     0.0000    12.0000 </r>
       <r>   -34.9080     0.0000    12.0000 </r>
       <r>   -34.7001     0.0000    12.0000 </r>
       <r>   -34.4922     0.0000    12.0000 </r>
       <r>   -34.2843     0.0000    12.0000 </r>
       <r>   -34.0764     0.0000    12.0000 </r>
       <r>   -33.8685     0.0000    12.0000 </r>
       <r>   -33.6606     0.0000    12.0000 </r>
       <r>   -33.4527     0.0000    12.0000 </r>
       <r>   -33.2448     0.0000    12.0000 </r>
       <r>   -33.0370     0.0000    12.0000 </r>
       <r>   -32.8291     0.0000    12.0000 </r>
       <r>   -32.6212     0.0000    12.0000 </r>
       <r>   -32.4133     0.0000    12.0000 </r>
       <r>   -32.2054     0.0000    12.0000 </r>
       <r>   -31.9975     0.0000    12.0000 </r>
       <r>   -31.7896     0.0000    12.0000 </r>
       <r>   -31.5817     0.0000    12.0000 </r>
       <r>   -31.3738     0.0000    12.0000 </r>
       <r>   -31.1659     0.0000    12.0000 </r>
       <r>   -30.9580     0.0000    12.0000 </r>
       <r>   -30.7501     0.0000    12.0000 </r>
       <r>   -30.5422     0.0000    12.0000 </r>
       <r>   -30.3343     0.0000    12.0000 </r>
       <r>   -30.1264     0.0000    12.0000 </r>
       <r>   -29.9185     0.0000    12.0000 </r>
       <r>   -29.7106     0.0000    12.0000 </r>
       <r>   -29.5027     0.0000    12.0000 </r>
       <r>   -29.2948     0.0000    12.0000 </r>
       <r>   -29.0869     0.0000    12.0000 </r>
       <r>   -28.8790     0.0000    12.0000 </r>
       <r>   -28.6711     0.0000    12.0000 </r>
       <r>   -28.4632     0.0000    12.0000 </r>
       <r>   -28.2553     0.0000    12.0000 </r>
       <r>   -28.0474     0.0000    12.0000 </r>
       <r>   -27.8395     0.0000    12.0000 </r>
       <r>   -27.6316     0.0000    12.0000 </r>
       <r>   -27.4237     0.0000    12.0000 </r>
       <r>   -27.2158     0.0000    12.0000 </r>
       <r>   -27.0079     0.0000    12.0000 </r>
       <r>   -26.8000     0.0000    12.0000 </r>
       <r>   -26.5921     0.0000    12.0000 </r>
       <r>   -26.3842     0.0000    12.0000 </r>
       <r>   -26.1763     0.0000    12.0000 </r>
       <r>   -25.9684     0.0000    12.0000 </r>
       <r>   -25.7605    -0.0000    12.0000 </r>
       <r>   -25.5526    -0.0000    12.0000 </r>
       <r>   -25.3447    -0.0000    12.0000 </r>
       <r>   -25.1368    -0.0000    12.0000 </r>
       <r>   -24.9289    -0.0000    12.0000 </r>
       <r>   -24.7210    -0.0000    12.0000 </r>
       <r>   -24.5131    -0.0072    11.9985 </r>
       <r>   -24.3052    -0.1963    11.9577 </r>
       <r>   -24.0973     0.4897    12.0595 </r>
       <r>   -23.8894     9.1285    13.9573 </r>
       <r>   -23.6815    21.4786    18.4227 </r>
       <r>   -23.4737    32.5743    25.1948 </r>
       <r>   -23.2658    34.9297    32.4566 </r>
       <r>   -23.0579    39.1065    40.5867 </r>
       <r>   -22.8500    27.4217    46.2876 </r>
       <r>   -22.6421     8.1685    47.9859 </r>
       <r>   -22.4342     0.2388    48.0355 </r>
       <r>   -22.2263    -0.1637    48.0015 </r>
       <r>   -22.0184    -0.0071    48.0000 </r>
       <r>   -21.8105    -0.0000    48.0000 </r>
       <r>   -21.6026    -0.0000    48.0000 </r>
       <r>   -21.3947    -0.0000    48.0000 </r>
       <r>   -21.1868     0.0000    48.0000 </r>
       <r>   -20.9789     0.0000    48.0000 </r>
       <r>   -20.7710     0.0000    48.0000 </r>
       <r>   -20.5631     0.0000    48.0000 </r>
       <r>   -20.3552     0.0000    48.0000 </r>
       <r>   -20.1473     0.0000    48.0000 </r>
       <r>   -19.9394     0.0000    48.0000 </r>
       <r>   -19.7315     0.0000    48.0000 </r>
       <r>   -19.5236     0.0000    48.0000 </r>
       <r>   -19.3157     0.0000    48.0000 </r>
       <r>   -19.1078     0.0000    48.0000 </r>
       <r>   -18.8999     0.0000    48.0000 </r>
       <r>   -18.6920     0.0000    48.0000 </r>
       <r>   -18.4841     0.0000    48.0000 </r>
       <r>   -18.2762     0.0000    48.0000 </r>
       <r>   -18.0683     0.0000    48.0000 </r>
       <r>   -17.8604     0.0000    48.0000 </r>
       <r>   -17.6525     0.0000    48.0000 </r>
       <r>   -17.4446     0.0000    48.0000 </r>
       <r>   -17.2367     0.0000    48.0000 </r>
       <r>   -17.0288     0.0000    48.0000 </r>
       <r>   -16.8209     0.0000    48.0000 </r>
       <r>   -16.6130     0.0000    48.0000 </r>
       <r>   -16.4051     0.0000    48.0000 </r>
       <r>   -16.1972     0.0000    48.0000 </r>
       <r>   -15.9893     0.0000    48.0000 </r>
       <r>   -15.7814     0.0000    48.0000 </r>
       <r>   -15.5735     0.0000    48.0000 </r>
       <r>   -15.3656     0.0000    48.0000 </r>
       <r>   -15.1577     0.0000    48.0000 </r>
       <r>   -14.9498     0.0000    48.0000 </r>
       <r>   -14.7419     0.0000    48.0000 </r>
       <r>   -14.5340     0.0000    48.0000 </r>
       <r>   -14.3261     0.0000    48.0000 </r>
       <r>   -14.1183     0.0000    48.0000 </r>
       <r>   -13.9104     0.0000    48.0000 </r>
       <r>   -13.7025     0.0000    48.0000 </r>
       <r>   -13.4946     0.0000    48.0000 </r>
       <r>   -13.2867     0.0000    48.0000 </r>
       <r>   -13.0788     0.0000    48.0000 </r>
       <r>   -12.8709     0.0000    48.0000 </r>
       <r>   -12.6630     0.0000    48.0000 </r>
       <r>   -12.4551     0.0000    48.0000 </r>
       <r>   -12.2472     0.0000    48.0000 </r>
       <r>   -12.0393     0.0000    48.0000 </r>
       <r>   -11.8314     0.0000    48.0000 </r>
       <r>   -11.6235     0.0000    48.0000 </r>
       <r>   -11.4156     0.0000    48.0000 </r>
       <r>   -11.2077     0.0000    48.0000 </r>
       <r>   -10.9998     0.0000    48.0000 </r>
       <r>   -10.7919     0.0000    48.0000 </r>
       <r>   -10.5840     0.0000    48.0000 </r>
       <r>   -10.3761     0.0000    48.0000 </r>
       <r>   -10.1682     0.0000    48.0000 </r>
       <r>    -9.9603     0.0000    48.0000 </r>
       <r>    -9.7524     0.0000    48.0000 </r>
       <r>    -9.5445     0.0000    48.0000 </r>
       <r>    -9.3366     0.0000    48.0000 </r>
       <r>    -9.1287     0.0000    48.0000 </r>
       <r>    -8.9208     0.0000    48.0000 </r>
       <r>    -8.7129     0.0000    48.0000 </r>
       <r>    -8.5050     0.0000    48.0000 </r>
       <r>    -8.2971     0.0000    48.0000 </r>
       <r>    -8.0892     0.0000    48.0000 </r>
       <r>    -7.8813     0.0000    48.0000 </r>
       <r>    -7.6734     0.0000    48.0000 </r>
       <r>    -7.4655     0.0000    48.0000 </r>
       <r>    -7.2576     0.0000    48.0000 </r>
       <r>    -7.0497     0.0000    48.0000 </r>
       <r>    -6.8418     0.0000    48.0000 </r>
       <r>    -6.6339     0.0000    48.0000 </r>
       <r>    -6.4260     0.0000    48.0000 </r>
       <r>    -6.2181     0.0000    48.0000 </r>
       <r>    -6.0102     0.0000    48.0000 </r>
       <r>    -5.8023     0.0000    48.0000 </r>
       <r>    -5.5944     0.0000    48.0000 </r>
       <r>    -5.3865     0.0000    48.0000 </r>
       <r>    -5.1786     0.0000    48.0000 </r>
       <r>    -4.9707     0.0000    48.0000 </r>
       <r>    -4.7628     0.0000    48.0000 </r>
       <r>    -4.5550     0.0000    48.0000 </r>
       <r>    -4.3471     0.0000    48.0000 </r>
       <r>    -4.1392     0.0000    48.0000 </r>
       <r>    -3.9313     0.0000    48.0000 </r>
       <r>    -3.7234     0.0000    48.0000 </r>
       <r>    -3.5155     0.0000    48.0000 </r>
       <r>    -3.3076     0.0000    48.0000 </r>
       <r>    -3.0997     0.0000    48.0000 </r>
       <r>    -2.8918     0.0000    48.0000 </r>
       <r>    -2.6839     0.0000    48.0000 </r>
       <r>    -2.4760     0.0000    48.0000 </r>
       <r>    -2.2681    -0.0000    48.0000 </r>
       <r>    -2.0602    -0.0000    48.0000 </r>
       <r>    -1.8523    -0.0000    48.0000 </r>
       <r>    -1.6444    -0.0000    48.0000 </r>
       <r>    -1.4365    -0.0000    48.0000 </r>
       <r>    -1.2286    -0.0000    48.0000 </r>
       <r>    -1.0207    -0.0001    48.0000 </r>
       <r>    -0.8128    -0.0059    47.9987 </r>
       <r>    -0.6049     0.0016    47.9991 </r>
       <r>    -0.3970     0.2912    48.0596 </r>
       <r>    -0.1891     0.9414    48.2553 </r>
       <r>     0.0188     1.6236    48.5928 </r>
       <r>     0.2267     1.8994    48.9877 </r>
       <r>     0.4346     1.6003    49.3204 </r>
       <r>     0.6425     2.6380    49.8689 </r>
       <r>     0.8504     3.3624    50.5679 </r>
       <r>     1.0583     3.0064    51.1929 </r>
       <r>     1.2662     2.7673    51.7682 </r>
       <r>     1.4741     4.2855    52.6592 </r>
       <r>     1.6820     4.4665    53.5877 </r>
       <r>     1.8899     4.4845    54.5200 </r>
       <r>     2.0978     6.5098    55.8734 </r>
       <r>     2.3057     9.7951    57.9098 </r>
       <r>     2.5136    15.9506    61.2259 </r>
       <r>     2.7215    19.3300    65.2446 </r>
       <r>     2.9294    21.8760    69.7925 </r>
       <r>     3.1373    27.2072    75.4489 </r>
       <r>     3.3452    28.0105    81.2722 </r>
       <r>     3.5531    28.2852    87.1526 </r>
       <r>     3.7610    28.7234    93.1241 </r>
       <r>     3.9689    31.1341    99.5969 </r>
       <r>     4.1768    29.9125   105.8156 </r>
       <r>     4.3847    25.1013   111.0341 </r>
       <r>     4.5926    27.7364   116.8004 </r>
       <r>     4.8005    36.5640   124.4020 </r>
       <r>     5.0083    38.9614   132.5020 </r>
       <r>     5.2162    37.8815   140.3775 </r>
       <r>     5.4241    36.3474   147.9340 </r>
       <r>     5.6320    37.0804   155.6430 </r>
       <r>     5.8399    37.1214   163.3604 </r>
       <r>     6.0478    38.6788   171.4017 </r>
       <r>     6.2557    40.8639   179.8972 </r>
       <r>     6.4636    40.6881   188.3561 </r>
       <r>     6.6715    36.3407   195.9113 </r>
       <r>     6.8794    30.1197   202.1731 </r>
       <r>     7.0873    23.2825   207.0135 </r>
       <r>     7.2952    18.6311   210.8869 </r>
       <r>     7.5031    15.8084   214.1734 </r>
       <r>     7.7110    15.5458   217.4053 </r>
       <r>     7.9189    16.3990   220.8146 </r>
       <r>     8.1268    18.8042   224.7240 </r>
       <r>     8.3347    21.4217   229.1775 </r>
       <r>     8.5426    21.2975   233.6052 </r>
       <r>     8.7505    16.0863   236.9495 </r>
       <r>     8.9584    10.0059   239.0297 </r>
       <r>     9.1663     4.2165   239.9063 </r>
       <r>     9.3742     0.5333   240.0172 </r>
       <r>     9.5821    -0.0731   240.0020 </r>
       <r>     9.7900    -0.0096   240.0000 </r>
       <r>     9.9979    -0.0001   240.0000 </r>
       <r>    10.2058    -0.0000   240.0000 </r>
       <r>    10.4137    -0.0000   240.0000 </r>
       <r>    10.6216    -0.0000   240.0000 </r>
       <r>    10.8295     0.0000   240.0000 </r>
       <r>    11.0374     0.0000   240.0000 </r>
       <r>    11.2453     0.0000   240.0000 </r>
       <r>    11.4532     0.0000   240.0000 </r>
       <r>    11.6611     0.0000   240.0000 </r>
       <r>    11.8690     0.0000   240.0000 </r>
       <r>    12.0769     0.0000   240.0000 </r>
      </set>
     </set>
    </array>
   </total>
  </dos>
 </calculation>
 <structure name="finalpos" >
  <crystal>
   <varray name="basis" >
    <v>      -3.18669278      -3.16394687      -3.18270545 </v>
    <v>       1.54246816       1.61684902      -7.94089154 </v>
    <v>       7.89694080      -7.91423766      -1.51722723 </v>
   </varray>
   <i name="volume">    478.58127934 </i>
   <varray name="rec_basis" >
    <v>      -0.13644334      -0.12614049      -0.05218679 </v>
    <v>       0.04260146       0.06261961      -0.10490537 </v>
    <v>       0.06325052      -0.06313328      -0.00056858 </v>
   </varray>
  </crystal>
  <varray name="positions" >
   <v>       0.96052842       0.93198121       0.39913944 </v>
   <v>       0.63445754       0.26297120       0.40315036 </v>
   <v>       0.49699420       0.00405707      -0.00392633 </v>
   <v>      -0.00157301      -0.00650893      -0.01063756 </v>
   <v>       0.09529824       0.20604939       0.79768780 </v>
   <v>       0.03453640       0.05601347       0.60827382 </v>
   <v>       0.90545508       0.79782145       0.20044913 </v>
   <v>       0.80640317       0.59243385       0.39901652 </v>
   <v>       0.73514918       0.46560357       0.19952518 </v>
   <v>       0.66582398       0.33902097      -0.00188149 </v>
   <v>       0.37512762       0.72787406       0.60062045 </v>
   <v>       0.13099767       0.27151636       0.40040036 </v>
   <v>       0.84038252       0.66900515      -0.00391586 </v>
   <v>       0.57399896       0.13074098       0.19526119 </v>
   <v>       0.40677744       0.79591181       0.19678192 </v>
   <v>       0.45328650       0.85867376       0.79733234 </v>
   <v>       0.30108324       0.60132680       0.40303829 </v>
   <v>       0.86189783       0.73367724       0.60573631 </v>
   <v>       0.46342198       0.92990704       0.40789967 </v>
   <v>       0.17307787       0.33509864      -0.00102015 </v>
   <v>       0.24358564       0.56013113       0.79739281 </v>
   <v>       0.19389956       0.39325566       0.59856117 </v>
   <v>       0.06485225       0.14679291       0.20800187 </v>
   <v>       0.76056357       0.52354142       0.80052735 </v>
   <v>       0.68928465       0.40687111       0.60294902 </v>
   <v>       0.59383218       0.20292356       0.79582744 </v>
   <v>       0.53326364       0.06891080       0.60399936 </v>
   <v>       0.34197491       0.65911079       0.00041937 </v>
   <v>       0.23228545       0.46862085       0.19939019 </v>
  </varray>
 </structure>
</modeling>
