SQS with 1 vacancy for VFE and VRV      
           1
    -3.190000   -3.190000   -3.190000
     1.595000    1.595000   -7.975000
     7.975000   -7.975000   -1.595000
   Nb   Mo   Ta   Ti   W 
   6   6   5   6   6
Direct configuration=     1
   0.96666667  0.93333333  0.40000000
   0.63333333  0.26666667  0.40000000
   0.50000000  0.00000000  0.00000000
   0.00000000  0.00000000  0.00000000
   0.10000000  0.20000000  0.80000000
   0.03333333  0.06666667  0.60000000
   0.90000000  0.80000000  0.20000000
   0.80000000  0.60000000  0.40000000
   0.73333333  0.46666667  0.20000000
   0.66666667  0.33333333  0.00000000
   0.36666667  0.73333333  0.60000000
   0.13333333  0.26666667  0.40000000
   0.83333333  0.66666667  0.00000000
   0.56666667  0.13333333  0.20000000
   0.40000000  0.80000000  0.20000000
   0.43333333  0.86666667  0.80000000
   0.30000000  0.60000000  0.40000000
   0.86666667  0.73333333  0.60000000
   0.46666667  0.93333333  0.40000000
   0.16666667  0.33333333  0.00000000
   0.26666667  0.53333333  0.80000000
   0.20000000  0.40000000  0.60000000
   0.06666667  0.13333333  0.20000000
   0.76666667  0.53333333  0.80000000
   0.70000000  0.40000000  0.60000000
   0.60000000  0.20000000  0.80000000
   0.53333333  0.06666667  0.60000000
   0.33333333  0.66666667  0.00000000
   0.23333333  0.46666667  0.20000000
SQS with 1 vacancy for VFE and VRV      
           1
    -3.134023   -3.131368   -3.135357
     1.551537    1.579832   -7.837065
     7.817857   -7.836127   -1.542773
   Nb   Mo   Ta   Ti   W 
   6   6   5   6   6
Direct configuration=     2
   0.96372794  0.93338564  0.39869947
   0.63329713  0.26552542  0.40113570
   0.49850736  0.00231119 -0.00049478
  -0.00144146 -0.00194074 -0.00212771
   0.09796683  0.20535344  0.79901651
   0.03509447  0.06434464  0.60129325
   0.90128675  0.79872564  0.20173708
   0.80313317  0.59583801  0.39903391
   0.73344892  0.46615675  0.19967588
   0.66484997  0.33786020 -0.00079596
   0.37208937  0.73011704  0.59972087
   0.13286508  0.27054406  0.39821206
   0.83473803  0.66752743 -0.00147104
   0.56866173  0.13269056  0.19738259
   0.40342658  0.79572211  0.19764191
   0.43825849  0.86207304  0.79804567
   0.29916604  0.60209433  0.40232652
   0.86231896  0.73467764  0.60127801
   0.46556628  0.93198929  0.40360760
   0.16933675  0.33345029  0.00046606
   0.26523349  0.53920055  0.79967000
   0.20102319  0.39612684  0.59956568
   0.06494130  0.13820437  0.20344757
   0.76380387  0.52723894  0.80011723
   0.69658988  0.40558479  0.60232055
   0.59779327  0.20008393  0.79785493
   0.53382329  0.06884791  0.60168060
   0.33696153  0.66125980  0.00135932
   0.23019848  0.46834022  0.19960050
SQS with 1 vacancy for VFE and VRV      
           1
    -3.158337   -3.156836   -3.159092
     1.570416    1.586420   -7.896980
     7.886115   -7.896449   -1.565459
   Nb   Mo   Ta   Ti   W 
   6   6   5   6   6
Direct configuration=     3
   0.96502689  0.93336406  0.39927524
   0.63331345  0.26602811  0.40063397
   0.49916783  0.00129026 -0.00027753
  -0.00080566 -0.00108002 -0.00118435
   0.09886690  0.20298859  0.79944767
   0.03431568  0.06536920  0.60072260
   0.90071829  0.79928644  0.20096919
   0.80174588  0.59767934  0.39946458
   0.73339749  0.46638262  0.19981973
   0.66565419  0.33586042 -0.00044716
   0.36969018  0.73153969  0.59984657
   0.13307224  0.26883300  0.39900031
   0.83411624  0.66714940 -0.00082077
   0.56777782  0.13297883  0.19854138
   0.40190875  0.79761679  0.19868873
   0.43607805  0.86410687  0.79891393
   0.29953669  0.60116511  0.40129522
   0.86424278  0.73408100  0.60071163
   0.46605452  0.93257777  0.40201208
   0.16815620  0.33339827  0.00025950
   0.26586872  0.53660774  0.79981147
   0.20056940  0.39783943  0.59976092
   0.06570753  0.13604615  0.20191796
   0.76506835  0.52993188  0.80007043
   0.69810077  0.40311257  0.60128930
   0.59876804  0.20004974  0.79880440
   0.53360811  0.06788143  0.60093501
   0.33535625  0.66364792  0.00076175
   0.23158509  0.46760073  0.19977621
SQS with 1 vacancy for VFE and VRV      
           1
    -3.174192   -3.168211   -3.177490
     1.558108    1.607783   -7.938419
     7.905181   -7.934994   -1.543973
   Nb   Mo   Ta   Ti   W 
   6   6   5   6   6
Direct configuration=     4
   0.96128415  0.93361346  0.39783046
   0.63334313  0.26469052  0.40191447
   0.49739526  0.00375396 -0.00144012
  -0.00254220 -0.00342744 -0.00446367
   0.09660172  0.20843445  0.79831893
   0.03634047  0.06194697  0.60291433
   0.90221201  0.79789180  0.20272523
   0.80523285  0.59323037  0.39856712
   0.73378110  0.46537663  0.19944335
   0.66380834  0.34075338 -0.00128946
   0.37545724  0.72791306  0.59982600
   0.13247042  0.27296908  0.39725069
   0.83689829  0.66872337 -0.00325727
   0.57011370  0.13192187  0.19571021
   0.40576783  0.79346945  0.19642748
   0.44198478  0.85893111  0.79676422
   0.29883333  0.60323834  0.40424122
   0.85955267  0.73575010  0.60276988
   0.46477881  0.93090937  0.40629519
   0.17148253  0.33342312  0.00074556
   0.26218594  0.54481842  0.79924097
   0.20124468  0.39360693  0.59923164
   0.06369173  0.14217489  0.20610527
   0.76228526  0.52334256  0.80018961
   0.69401311  0.40936363  0.60365289
   0.59670877  0.19966894  0.79634225
   0.53448852  0.07003631  0.60296547
   0.33908033  0.65758405  0.00163243
   0.22817190  0.46922464  0.19934566
SQS with 1 vacancy for VFE and VRV      
           1
    -3.174566   -3.168479   -3.177925
     1.557817    1.608287   -7.939397
     7.905631   -7.935904   -1.543465
   Nb   Mo   Ta   Ti   W 
   6   6   5   6   6
Direct configuration=     5
   0.96119624  0.93361923  0.39779647
   0.63334383  0.26465922  0.40194452
   0.49735357  0.00381173 -0.00146735
  -0.00258285 -0.00348284 -0.00454092
   0.09654838  0.20856226  0.79829264
   0.03638808  0.06186678  0.60296572
   0.90224710  0.79785919  0.20276647
   0.80531492  0.59312578  0.39854581
   0.73379016  0.46535297  0.19943445
   0.66376485  0.34086822 -0.00130904
   0.37559284  0.72782782  0.59982537
   0.13245622  0.27306606  0.39720974
   0.83696368  0.66876007 -0.00331448
   0.57016869  0.13189676  0.19564359
   0.40585868  0.79337181  0.19637412
   0.44212377  0.85880930  0.79671344
   0.29881666  0.60328730  0.40431060
   0.85944237  0.73578955  0.60281833
   0.46474876  0.93087060  0.40639583
   0.17156067  0.33342370  0.00075701
   0.26209920  0.54501121  0.79922793
   0.20126068  0.39350749  0.59921898
   0.06364409  0.14231922  0.20620404
   0.76222004  0.52318788  0.80019207
   0.69391683  0.40951069  0.60370876
   0.59666046  0.19965980  0.79628431
   0.53450909  0.07008708  0.60301334
   0.33916798  0.65744168  0.00165263
   0.22809167  0.46926278  0.19933559
SQS with 1 vacancy for VFE and VRV      
           1
    -3.183832   -3.172861   -3.187274
     1.556313    1.610592   -7.956792
     7.922934   -7.947185   -1.541935
   Nb   Mo   Ta   Ti   W 
   6   6   5   6   6
Direct configuration=     6
   0.96059355  0.93356266  0.39807118
   0.63356442  0.26477843  0.40209099
   0.49675120  0.00318029 -0.00280478
  -0.00228652 -0.00421995 -0.00573567
   0.09712664  0.20701665  0.79829994
   0.03646877  0.06111595  0.60386050
   0.90262657  0.79762648  0.20192647
   0.80546250  0.59336611  0.39880958
   0.73358216  0.46536804  0.19936912
   0.66453047  0.33966177 -0.00133235
   0.37498645  0.72818108  0.60015432
   0.13196972  0.27279769  0.39808963
   0.83771279  0.66934688 -0.00401722
   0.57038731  0.13161011  0.19569439
   0.40614474  0.79398764  0.19700205
   0.44350559  0.85880049  0.79708949
   0.29962729  0.60282115  0.40408288
   0.85983918  0.73581077  0.60374076
   0.46450518  0.93057263  0.40676769
   0.17193252  0.33375356  0.00064837
   0.25836831  0.54751570  0.79894294
   0.20022239  0.39358029  0.59889146
   0.06360780  0.14367389  0.20677456
   0.76242284  0.52443310  0.80065229
   0.69351954  0.40825790  0.60291770
   0.59669102  0.19994739  0.79611534
   0.53467526  0.06964460  0.60330422
   0.33916719  0.65824100  0.00096636
   0.22896180  0.46890105  0.19962780
SQS with 1 vacancy for VFE and VRV      
           1
    -3.186357   -3.174055   -3.189822
     1.555903    1.611220   -7.961532
     7.927650   -7.950260   -1.541518
   Nb   Mo   Ta   Ti   W 
   6   6   5   6   6
Direct configuration=     7
   0.96042976  0.93354734  0.39814585
   0.63362441  0.26481085  0.40213086
   0.49658718  0.00300853 -0.00316871
  -0.00220611 -0.00442053 -0.00606072
   0.09728423  0.20659618  0.79830187
   0.03649112  0.06091174  0.60410388
   0.90272957  0.79756311  0.20169797
   0.80550264  0.59343148  0.39888137
   0.73352559  0.46537215  0.19935133
   0.66473890  0.33933353 -0.00133871
   0.37482158  0.72827723  0.60024378
   0.13183775  0.27272476  0.39832894
   0.83791615  0.66950641 -0.00420830
   0.57044684  0.13153212  0.19570821
   0.40622256  0.79415515  0.19717294
   0.44388142  0.85879799  0.79719191
   0.29984774  0.60269428  0.40402097
   0.85994733  0.73581654  0.60399174
   0.46443912  0.93049161  0.40686882
   0.17203352  0.33384325  0.00061887
   0.25735322  0.54819726  0.79886526
   0.19993997  0.39360017  0.59880228
   0.06359779  0.14404240  0.20692985
   0.76247783  0.52477182  0.80077758
   0.69341157  0.40791713  0.60270239
   0.59669922  0.20002561  0.79606939
   0.53472062  0.06952424  0.60338334
   0.33916660  0.65845840  0.00077971
   0.22919856  0.46880258  0.19970734
SQS with 1 vacancy for VFE and VRV      
           1
    -3.184658   -3.169264   -3.187731
     1.550890    1.609222   -7.952565
     7.918413   -7.937710   -1.536051
   Nb   Mo   Ta   Ti   W 
   6   6   5   6   6
Direct configuration=     8
   0.96008605  0.93346725  0.39830904
   0.63375056  0.26479750  0.40223766
   0.49630742  0.00272202 -0.00384325
  -0.00210644 -0.00488747 -0.00679923
   0.09747029  0.20588121  0.79826359
   0.03647169  0.06041159  0.60465571
   0.90304886  0.79743994  0.20120067
   0.80564042  0.59350623  0.39902795
   0.73343243  0.46543288  0.19930249
   0.66516722  0.33875711 -0.00140711
   0.37459110  0.72839647  0.60042322
   0.13156132  0.27258587  0.39886790
   0.83829519  0.66978843 -0.00455450
   0.57067988  0.13131155  0.19570025
   0.40637432  0.79447659  0.19744367
   0.44485157  0.85871899  0.79735623
   0.30029461  0.60241913  0.40386880
   0.86021557  0.73578196  0.60458442
   0.46427003  0.93031371  0.40713305
   0.17229170  0.33406761  0.00051042
   0.25503466  0.54986385  0.79865790
   0.19921015  0.39359925  0.59861357
   0.06355080  0.14492112  0.20730517
   0.76250132  0.52517687  0.80095250
   0.69312117  0.40730934  0.60240287
   0.59664540  0.20033064  0.79591822
   0.53480320  0.06929079  0.60355264
   0.33938836  0.65879995  0.00048610
   0.22971783  0.46865294  0.19983004
SQS with 1 vacancy for VFE and VRV      
           1
    -3.182688   -3.163708   -3.185306
     1.545076    1.606904   -7.942165
     7.907701   -7.923156   -1.529711
   Nb   Mo   Ta   Ti   W 
   6   6   5   6   6
Direct configuration=     9
   0.95968720  0.93337435  0.39849846
   0.63389708  0.26478199  0.40236171
   0.49598235  0.00238924 -0.00462674
  -0.00199100 -0.00542987 -0.00765697
   0.09768665  0.20505092  0.79821901
   0.03644979  0.05983093  0.60529646
   0.90341921  0.79729676  0.20062319
   0.80580042  0.59359303  0.39919823
   0.73332422  0.46550340  0.19924577
   0.66566469  0.33808768 -0.00148658
   0.37432360  0.72853500  0.60063160
   0.13124089  0.27242476  0.39949372
   0.83873479  0.67011577 -0.00495642
   0.57095052  0.13105537  0.19569100
   0.40655050  0.79484989  0.19775819
   0.44597791  0.85862712  0.79754726
   0.30081339  0.60209951  0.40369211
   0.86052738  0.73574189  0.60527277
   0.46407402  0.93010722  0.40743984
   0.17259122  0.33432807  0.00038459
   0.25234216  0.55179950  0.79841695
   0.19836282  0.39359828  0.59839426
   0.06349605  0.14594160  0.20774123
   0.76252850  0.52564725  0.80115574
   0.69278418  0.40660356  0.60205483
   0.59658265  0.20068484  0.79574272
   0.53489932  0.06901972  0.60374922
   0.33964540  0.65919646  0.00014524
   0.23032077  0.46847911  0.19997261
SQS with 1 vacancy for VFE and VRV      
           1
    -3.182917   -3.163088   -3.184887
     1.543828    1.607713   -7.940878
     7.905769   -7.921212   -1.527397
   Nb   Mo   Ta   Ti   W 
   6   6   5   6   6
Direct configuration=    10
   0.95967919  0.93328064  0.39855295
   0.63391117  0.26457203  0.40242276
   0.49609465  0.00258983 -0.00448044
  -0.00213274 -0.00554114 -0.00791150
   0.09740588  0.20531576  0.79813162
   0.03631330  0.05952459  0.60550965
   0.90362857  0.79735762  0.20057479
   0.80588047  0.59351548  0.39921730
   0.73344982  0.46555350  0.19923767
   0.66571563  0.33821076 -0.00157430
   0.37443832  0.72843586  0.60065271
   0.13126189  0.27236635  0.39963185
   0.83890287  0.66998124 -0.00493187
   0.57122310  0.13090823  0.19560666
   0.40647254  0.79491881  0.19757075
   0.44641584  0.85852193  0.79742774
   0.30079674  0.60213592  0.40365757
   0.86069704  0.73564474  0.60547941
   0.46397928  0.93008398  0.40757724
   0.17272109  0.33436890  0.00026017
   0.25158229  0.55255126  0.79828088
   0.19799730  0.39354687  0.59840801
   0.06344639  0.14617033  0.20784569
   0.76239528  0.52511176  0.80099651
   0.69260462  0.40673712  0.60229500
   0.59646959  0.20090682  0.79568676
   0.53487346  0.06899949  0.60374451
   0.34002426  0.65901489  0.00025508
   0.23041880  0.46854974  0.19987483
SQS with 1 vacancy for VFE and VRV      
           1
    -3.183607   -3.161228   -3.183629
     1.540086    1.610139   -7.937018
     7.899971   -7.915379   -1.520454
   Nb   Mo   Ta   Ti   W 
   6   6   5   6   6
Direct configuration=    11
   0.95965517  0.93299950  0.39871642
   0.63395346  0.26394211  0.40260590
   0.49643162  0.00319179 -0.00404134
  -0.00255804 -0.00587516 -0.00867535
   0.09656349  0.20611032  0.79786945
   0.03590386  0.05860555  0.60614922
   0.90425667  0.79754021  0.20042962
   0.80612065  0.59328282  0.39927452
   0.73382667  0.46570384  0.19921341
   0.66586846  0.33858003 -0.00183746
   0.37478251  0.72813839  0.60071605
   0.13132496  0.27219118  0.40004634
   0.83940714  0.66957765 -0.00485823
   0.57204085  0.13046673  0.19535357
   0.40623859  0.79512547  0.19700828
   0.44772965  0.85820629  0.79706913
   0.30074678  0.60224516  0.40355394
   0.86120612  0.73535336  0.60609947
   0.46369507  0.93001433  0.40798951
   0.17311071  0.33449135 -0.00011314
   0.24930250  0.55480674  0.79787273
   0.19690070  0.39339262  0.59844918
   0.06329744  0.14685669  0.20815924
   0.76199555  0.52350498  0.80051847
   0.69206599  0.40713799  0.60301570
   0.59613039  0.20157283  0.79551890
   0.53479590  0.06893881  0.60373035
   0.34116095  0.65847016  0.00058466
   0.23071288  0.46876160  0.19958147
SQS with 1 vacancy for VFE and VRV      
           1
    -3.187911   -3.165534   -3.187198
     1.542120    1.613869   -7.947392
     7.907966   -7.924564   -1.521059
   Nb   Mo   Ta   Ti   W 
   6   6   5   6   6
Direct configuration=    12
   0.95978692  0.93281593  0.39879088
   0.63402538  0.26374553  0.40270994
   0.49643759  0.00346163 -0.00394229
  -0.00248744 -0.00596398 -0.00902625
   0.09649675  0.20619460  0.79780409
   0.03570208  0.05817543  0.60647377
   0.90443822  0.79762348  0.20047582
   0.80621629  0.59315054  0.39926322
   0.73414694  0.46571050  0.19927625
   0.66587677  0.33871625 -0.00187084
   0.37490116  0.72804864  0.60070298
   0.13128329  0.27211874  0.40014092
   0.83959598  0.66936050 -0.00477809
   0.57240895  0.13038985  0.19528689
   0.40626185  0.79529339  0.19686372
   0.44839526  0.85816838  0.79702675
   0.30072259  0.60224287  0.40349198
   0.86148904  0.73513791  0.60625568
   0.46361001  0.92997452  0.40805208
   0.17321703  0.33455741 -0.00031647
   0.24839087  0.55571685  0.79774757
   0.19644580  0.39340415  0.59850066
   0.06334725  0.14698424  0.20818350
   0.76167513  0.52320870  0.80042040
   0.69157337  0.40723933  0.60311244
   0.59580327  0.20175631  0.79555538
   0.53459119  0.06895334  0.60375711
   0.34144170  0.65836325  0.00055996
   0.23087343  0.46878506  0.19948194
SQS with 1 vacancy for VFE and VRV      
           1
    -3.187420   -3.165043   -3.186791
     1.541888    1.613443   -7.946209
     7.907054   -7.923516   -1.520990
   Nb   Mo   Ta   Ti   W 
   6   6   5   6   6
Direct configuration=    13
   0.95977191  0.93283684  0.39878239
   0.63401719  0.26376792  0.40269808
   0.49643690  0.00343088 -0.00395358
  -0.00249548 -0.00595385 -0.00898626
   0.09650435  0.20618500  0.79781154
   0.03572509  0.05822443  0.60643678
   0.90441753  0.79761399  0.20047055
   0.80620539  0.59316561  0.39926451
   0.73411045  0.46570974  0.19926909
   0.66587582  0.33870073 -0.00186704
   0.37488764  0.72805887  0.60070447
   0.13128804  0.27212699  0.40013014
   0.83957447  0.66938524 -0.00478722
   0.57236701  0.13039861  0.19529449
   0.40625920  0.79527426  0.19688020
   0.44831941  0.85817269  0.79703158
   0.30072535  0.60224313  0.40349904
   0.86145680  0.73516245  0.60623787
   0.46361970  0.92997905  0.40804495
   0.17320491  0.33454989 -0.00029330
   0.24849473  0.55561316  0.79776183
   0.19649764  0.39340284  0.59849479
   0.06334157  0.14696970  0.20818073
   0.76171165  0.52324246  0.80043158
   0.69162951  0.40722778  0.60310142
   0.59584054  0.20173541  0.79555122
   0.53461452  0.06895168  0.60375406
   0.34140971  0.65837543  0.00056278
   0.23085514  0.46878239  0.19949329
SQS with 1 vacancy for VFE and VRV      
           1
    -3.187484   -3.165817   -3.186179
     1.542450    1.615145   -7.946513
     7.905000   -7.923602   -1.520326
   Nb   Mo   Ta   Ti   W 
   6   6   5   6   6
Direct configuration=    14
   0.95996012  0.93261497  0.39886389
   0.63412944  0.26361269  0.40281945
   0.49638369  0.00367991 -0.00392791
  -0.00228795 -0.00603705 -0.00933939
   0.09654253  0.20614417  0.79776367
   0.03550631  0.05779531  0.60678356
   0.90456304  0.79766855  0.20055275
   0.80629447  0.59301148  0.39922826
   0.73447574  0.46569762  0.19936373
   0.66584035  0.33882160 -0.00186001
   0.37503300  0.72798921  0.60064233
   0.13119711  0.27207882  0.40016604
   0.83970703  0.66918533 -0.00465624
   0.57273170  0.13039306  0.19526482
   0.40637186  0.79546478  0.19681173
   0.44912460  0.85814980  0.79707891
   0.30072518  0.60217677  0.40341408
   0.86171766  0.73488883  0.60629482
   0.46357212  0.92994866  0.40803429
   0.17325671  0.33463642 -0.00048144
   0.24760363  0.55648157  0.79767662
   0.19605948  0.39340919  0.59853664
   0.06347848  0.14702335  0.20815966
   0.76132589  0.52319490  0.80041263
   0.69100598  0.40727204  0.60306587
   0.59541108  0.20189461  0.79561866
   0.53431106  0.06899351  0.60380581
   0.34156933  0.65836890  0.00047871
   0.23105705  0.46877431  0.19942807
SQS with 1 vacancy for VFE and VRV      
           1
    -3.187672   -3.168117   -3.184363
     1.544118    1.620200   -7.947418
     7.898898   -7.923857   -1.518355
   Nb   Mo   Ta   Ti   W 
   6   6   5   6   6
Direct configuration=    15
   0.96051893  0.93195609  0.39910593
   0.63446264  0.26315175  0.40317995
   0.49622579  0.00441951 -0.00385159
  -0.00167131 -0.00628426 -0.01038858
   0.09665592  0.20602288  0.79762142
   0.03485585  0.05652088  0.60781378
   0.90499522  0.79783070  0.20079693
   0.80655895  0.59255373  0.39912051
   0.73556072  0.46566179  0.19964485
   0.66573510  0.33918059 -0.00183911
   0.37546478  0.72778235  0.60045768
   0.13092696  0.27193575  0.40027269
   0.84010052  0.66859170 -0.00426718
   0.57381497  0.13037670  0.19517664
   0.40670671  0.79603068  0.19660833
   0.45151622  0.85808211  0.79721940
   0.30072469  0.60197965  0.40316166
   0.86249220  0.73407628  0.60646390
   0.46343076  0.92985838  0.40800263
   0.17341080  0.33489336 -0.00104039
   0.24495753  0.55906046  0.79742378
   0.19475797  0.39342792  0.59866102
   0.06388521  0.14718273  0.20809707
   0.76018002  0.52305350  0.80035637
   0.68915395  0.40740324  0.60296036
   0.59413551  0.20236735  0.79581910
   0.53340968  0.06911768  0.60395960
   0.34204353  0.65834950  0.00022895
   0.23165684  0.46875034  0.19923429
SQS with 1 vacancy for VFE and VRV      
           1
    -3.183600   -3.163550   -3.179664
     1.542506    1.618189   -7.936373
     7.888239   -7.911727   -1.516246
   Nb   Mo   Ta   Ti   W 
   6   6   5   6   6
Direct configuration=    16
   0.96067910  0.93177698  0.39921006
   0.63450440  0.26301670  0.40324229
   0.49650618  0.00435506 -0.00388599
  -0.00150504 -0.00647502 -0.01073727
   0.09617130  0.20598693  0.79759290
   0.03457571  0.05604750  0.60820436
   0.90526819  0.79784498  0.20070567
   0.80655641  0.59242145  0.39907419
   0.73560835  0.46568356  0.19967806
   0.66577491  0.33916897 -0.00185607
   0.37547985  0.72778570  0.60043178
   0.13090390  0.27179516  0.40036963
   0.84024390  0.66864919 -0.00405245
   0.57411187  0.13053189  0.19522086
   0.40679135  0.79611232  0.19662456
   0.45266133  0.85826131  0.79731632
   0.30087166  0.60172774  0.40304210
   0.86256793  0.73373763  0.60631290
   0.46343156  0.92985078  0.40795134
   0.17333812  0.33503124 -0.00119695
   0.24378717  0.56001804  0.79731791
   0.19411455  0.39339914  0.59865067
   0.06430604  0.14712410  0.20806167
   0.76005964  0.52318463  0.80039341
   0.68877906  0.40722297  0.60291412
   0.59381673  0.20264974  0.79585413
   0.53312454  0.06906334  0.60401602
   0.34205895  0.65864482  0.00028180
   0.23207904  0.46871650  0.19926199
SQS with 1 vacancy for VFE and VRV      
           1
    -3.185480   -3.165658   -3.181833
     1.543250    1.619117   -7.941472
     7.893159   -7.917327   -1.517219
   Nb   Mo   Ta   Ti   W 
   6   6   5   6   6
Direct configuration=    17
   0.96060506  0.93185977  0.39916192
   0.63448510  0.26307913  0.40321347
   0.49637658  0.00438484 -0.00387009
  -0.00158186 -0.00638686 -0.01057608
   0.09639532  0.20600355  0.79760609
   0.03470519  0.05626633  0.60802380
   0.90514202  0.79783837  0.20074786
   0.80655760  0.59248259  0.39909560
   0.73558633  0.46567350  0.19966271
   0.66575651  0.33917434 -0.00184823
   0.37547288  0.72778415  0.60044375
   0.13091455  0.27186015  0.40032482
   0.84017760  0.66862262 -0.00415172
   0.57397462  0.13046015  0.19520041
   0.40675222  0.79607458  0.19661706
   0.45213199  0.85817846  0.79727150
   0.30080375  0.60184418  0.40309736
   0.86253296  0.73389415  0.60638270
   0.46343119  0.92985429  0.40797505
   0.17337172  0.33496750 -0.00112457
   0.24432812  0.55957543  0.79736688
   0.19441197  0.39341245  0.59865546
   0.06411152  0.14715120  0.20807802
   0.76011528  0.52312402  0.80037629
   0.68895236  0.40730630  0.60293550
   0.59396407  0.20251922  0.79583795
   0.53325635  0.06908847  0.60398994
   0.34205180  0.65850831  0.00025737
   0.23188388  0.46873214  0.19924918
SQS with 1 vacancy for VFE and VRV      
           1
    -3.186388   -3.165303   -3.182556
     1.543461    1.618285   -7.942398
     7.896054   -7.916870   -1.517780
   Nb   Mo   Ta   Ti   W 
   6   6   5   6   6
Direct configuration=    18
   0.96056977  0.93191756  0.39917917
   0.63446060  0.26305803  0.40316923
   0.49666826  0.00417924 -0.00390985
  -0.00159464 -0.00646292 -0.01061799
   0.09589821  0.20599839  0.79763710
   0.03462373  0.05617019  0.60812830
   0.90527816  0.79783095  0.20058336
   0.80648171  0.59248877  0.39907674
   0.73535940  0.46565945  0.19960283
   0.66583310  0.33904898 -0.00186440
   0.37532200  0.72784452  0.60051588
   0.13095831  0.27172277  0.40036802
   0.84024440  0.66882335 -0.00405486
   0.57395267  0.13061090  0.19523672
   0.40674595  0.79601669  0.19666732
   0.45256750  0.85838827  0.79731524
   0.30095464  0.60161480  0.40307333
   0.86233901  0.73380727  0.60617089
   0.46343578  0.92988917  0.40793989
   0.17324293  0.33501807 -0.00109606
   0.24397151  0.55977390  0.79735799
   0.19415998  0.39338148  0.59861332
   0.06441207  0.14702256  0.20803874
   0.76033615  0.52331306  0.80043508
   0.68913566  0.40708618  0.60292667
   0.59399969  0.20265701  0.79583506
   0.53327111  0.06898431  0.60400305
   0.34193800  0.65880801  0.00035053
   0.23210102  0.46868238  0.19931871
SQS with 1 vacancy for VFE and VRV      
           1
    -3.187670   -3.164801   -3.183576
     1.543758    1.617110   -7.943707
     7.900141   -7.916226   -1.518570
   Nb   Mo   Ta   Ti   W 
   6   6   5   6   6
Direct configuration=    19
   0.96051996  0.93199914  0.39920350
   0.63442601  0.26302827  0.40310678
   0.49708000  0.00388898 -0.00396590
  -0.00161269 -0.00657028 -0.01067714
   0.09519653  0.20599113  0.79768080
   0.03450882  0.05603444  0.60827580
   0.90547024  0.79782051  0.20035119
   0.80637457  0.59249750  0.39905010
   0.73503903  0.46563966  0.19951828
   0.66594121  0.33887200 -0.00188720
   0.37510904  0.72792973  0.60061767
   0.13102013  0.27152883  0.40042901
   0.84033871  0.66910667 -0.00391815
   0.57392169  0.13082370  0.19528795
   0.40673713  0.79593496  0.19673828
   0.45318224  0.85868440  0.79737700
   0.30116767  0.60129100  0.40303945
   0.86206512  0.73368469  0.60587189
   0.46344222  0.92993842  0.40789027
   0.17306112  0.33508946 -0.00105584
   0.24346809  0.56005412  0.79734538
   0.19380426  0.39333778  0.59855379
   0.06483632  0.14684095  0.20798334
   0.76064793  0.52357988  0.80051807
   0.68939443  0.40677542  0.60291424
   0.59404995  0.20285152  0.79583098
   0.53329198  0.06883727  0.60402157
   0.34177736  0.65923107  0.00048199
   0.23240759  0.46861210  0.19941689
SQS with 1 vacancy for VFE and VRV      
           1
    -3.186325   -3.163625   -3.182377
     1.541982    1.616751   -7.939831
     7.895735   -7.913489   -1.516721
   Nb   Mo   Ta   Ti   W 
   6   6   5   6   6
Direct configuration=    20
   0.96053162  0.93197444  0.39911529
   0.63446942  0.26294969  0.40316679
   0.49696184  0.00412046 -0.00391140
  -0.00155805 -0.00648579 -0.01062263
   0.09533658  0.20607136  0.79769044
   0.03454679  0.05600556  0.60827307
   0.90544935  0.79782181  0.20048606
   0.80641396  0.59240985  0.39900386
   0.73519071  0.46558996  0.19952778
   0.66577978  0.33907714 -0.00187933
   0.37513462  0.72785307  0.60062150
   0.13098920  0.27151165  0.40038955
   0.84039904  0.66896687 -0.00391500
   0.57402809  0.13070978  0.19525110
   0.40679264  0.79590309  0.19679838
   0.45332582  0.85866975  0.79731550
   0.30105140  0.60134030  0.40303785
   0.86183477  0.73367442  0.60568519
   0.46341434  0.92989521  0.40790321
   0.17308419  0.33510210 -0.00100669
   0.24362995  0.56016017  0.79741069
   0.19393549  0.39322469  0.59856395
   0.06485825  0.14677480  0.20800885
   0.76053177  0.52352692  0.80053085
   0.68924325  0.40690720  0.60296215
   0.59375008  0.20295073  0.79582611
   0.53325296  0.06893853  0.60399099
   0.34204940  0.65906542  0.00039575
   0.23223940  0.46862415  0.19938013
SQS with 1 vacancy for VFE and VRV      
           1
    -3.186693   -3.163947   -3.182705
     1.542468    1.616849   -7.940892
     7.896941   -7.914238   -1.517227
   Nb   Mo   Ta   Ti   W 
   6   6   5   6   6
Direct configuration=    21
   0.96052842  0.93198121  0.39913944
   0.63445754  0.26297120  0.40315036
   0.49699420  0.00405707 -0.00392633
  -0.00157301 -0.00650893 -0.01063756
   0.09529824  0.20604939  0.79768780
   0.03453640  0.05601347  0.60827382
   0.90545508  0.79782145  0.20044913
   0.80640317  0.59243385  0.39901652
   0.73514918  0.46560357  0.19952518
   0.66582398  0.33902097 -0.00188149
   0.37512762  0.72787406  0.60062045
   0.13099767  0.27151636  0.40040036
   0.84038252  0.66900515 -0.00391586
   0.57399896  0.13074098  0.19526119
   0.40677744  0.79591181  0.19678192
   0.45328650  0.85867376  0.79733234
   0.30108324  0.60132680  0.40303829
   0.86189783  0.73367724  0.60573631
   0.46342198  0.92990704  0.40789967
   0.17307787  0.33509864 -0.00102015
   0.24358564  0.56013113  0.79739281
   0.19389956  0.39325566  0.59856117
   0.06485225  0.14679291  0.20800187
   0.76056357  0.52354142  0.80052735
   0.68928465  0.40687111  0.60294902
   0.59383218  0.20292356  0.79582744
   0.53326364  0.06891080  0.60399936
   0.34197491  0.65911079  0.00041937
   0.23228545  0.46862085  0.19939019
