  29  29   0   0
  0.1632129E+02  0.5473281E-09  0.8209921E-09  0.1128346E-08  0.5000000E-15
  1.000000000000000E-004
  CAR 
 Nb - Mo - Ta - Ti - V SQS               
     11.69562304    -50.42385604  301      6.64879008      1.00000000
    -50.424  0.0000E+00  0.0000E+00
    -50.217  0.0000E+00  0.0000E+00
    -50.010  0.0000E+00  0.0000E+00
    -49.803  0.0000E+00  0.0000E+00
    -49.596  0.0000E+00  0.0000E+00
    -49.389 -0.5484E-35 -0.1135E-35
    -49.181 -0.1922E-27 -0.3980E-28
    -48.974 -0.7782E-21 -0.1611E-21
    -48.767 -0.3518E-15 -0.7284E-16
    -48.560 -0.1850E-10 -0.3830E-11
    -48.353 -0.1088E-06 -0.2253E-07
    -48.146 -0.6917E-04 -0.1435E-04
    -47.939 -0.4132E-02 -0.8698E-03
    -47.732  0.5044E-02  0.1745E-03
    -47.525  0.2168E+00  0.4507E-01
    -47.318  0.2459E+00  0.9600E-01
    -47.111  0.4071E+00  0.1803E+00
    -46.904  0.2974E+00  0.2419E+00
    -46.697 -0.4404E-02  0.2410E+00
    -46.490 -0.4580E-02  0.2400E+00
    -46.283 -0.5959E-04  0.2400E+00
    -46.075 -0.7630E-07  0.2400E+00
    -45.868 -0.1080E-10  0.2400E+00
    -45.661 -0.1716E-15  0.2400E+00
    -45.454  0.0000E+00  0.2400E+00
    -45.247  0.0000E+00  0.2400E+00
    -45.040  0.0000E+00  0.2400E+00
    -44.833  0.0000E+00  0.2400E+00
    -44.626  0.0000E+00  0.2400E+00
    -44.419  0.0000E+00  0.2400E+00
    -44.212  0.0000E+00  0.2400E+00
    -44.005  0.0000E+00  0.2400E+00
    -43.798  0.0000E+00  0.2400E+00
    -43.591  0.0000E+00  0.2400E+00
    -43.384  0.0000E+00  0.2400E+00
    -43.177  0.0000E+00  0.2400E+00
    -42.970  0.0000E+00  0.2400E+00
    -42.762  0.0000E+00  0.2400E+00
    -42.555  0.0000E+00  0.2400E+00
    -42.348  0.0000E+00  0.2400E+00
    -42.141  0.0000E+00  0.2400E+00
    -41.934  0.0000E+00  0.2400E+00
    -41.727  0.0000E+00  0.2400E+00
    -41.520  0.0000E+00  0.2400E+00
    -41.313  0.0000E+00  0.2400E+00
    -41.106  0.0000E+00  0.2400E+00
    -40.899  0.0000E+00  0.2400E+00
    -40.692  0.0000E+00  0.2400E+00
    -40.485  0.0000E+00  0.2400E+00
    -40.278  0.0000E+00  0.2400E+00
    -40.071  0.0000E+00  0.2400E+00
    -39.864  0.0000E+00  0.2400E+00
    -39.656  0.0000E+00  0.2400E+00
    -39.449  0.0000E+00  0.2400E+00
    -39.242  0.0000E+00  0.2400E+00
    -39.035  0.0000E+00  0.2400E+00
    -38.828  0.0000E+00  0.2400E+00
    -38.621  0.0000E+00  0.2400E+00
    -38.414  0.0000E+00  0.2400E+00
    -38.207  0.0000E+00  0.2400E+00
    -38.000  0.0000E+00  0.2400E+00
    -37.793  0.0000E+00  0.2400E+00
    -37.586  0.0000E+00  0.2400E+00
    -37.379  0.0000E+00  0.2400E+00
    -37.172  0.0000E+00  0.2400E+00
    -36.965  0.0000E+00  0.2400E+00
    -36.758  0.0000E+00  0.2400E+00
    -36.551  0.0000E+00  0.2400E+00
    -36.343  0.0000E+00  0.2400E+00
    -36.136  0.0000E+00  0.2400E+00
    -35.929  0.0000E+00  0.2400E+00
    -35.722  0.0000E+00  0.2400E+00
    -35.515  0.0000E+00  0.2400E+00
    -35.308  0.0000E+00  0.2400E+00
    -35.101  0.0000E+00  0.2400E+00
    -34.894  0.0000E+00  0.2400E+00
    -34.687  0.0000E+00  0.2400E+00
    -34.480  0.0000E+00  0.2400E+00
    -34.273  0.0000E+00  0.2400E+00
    -34.066  0.0000E+00  0.2400E+00
    -33.859  0.0000E+00  0.2400E+00
    -33.652  0.0000E+00  0.2400E+00
    -33.445  0.0000E+00  0.2400E+00
    -33.237  0.0000E+00  0.2400E+00
    -33.030  0.0000E+00  0.2400E+00
    -32.823  0.0000E+00  0.2400E+00
    -32.616  0.0000E+00  0.2400E+00
    -32.409  0.0000E+00  0.2400E+00
    -32.202  0.0000E+00  0.2400E+00
    -31.995  0.0000E+00  0.2400E+00
    -31.788  0.0000E+00  0.2400E+00
    -31.581  0.0000E+00  0.2400E+00
    -31.374  0.0000E+00  0.2400E+00
    -31.167  0.0000E+00  0.2400E+00
    -30.960  0.0000E+00  0.2400E+00
    -30.753  0.0000E+00  0.2400E+00
    -30.546  0.0000E+00  0.2400E+00
    -30.339  0.0000E+00  0.2400E+00
    -30.131  0.0000E+00  0.2400E+00
    -29.924  0.0000E+00  0.2400E+00
    -29.717  0.0000E+00  0.2400E+00
    -29.510  0.0000E+00  0.2400E+00
    -29.303  0.0000E+00  0.2400E+00
    -29.096  0.0000E+00  0.2400E+00
    -28.889  0.0000E+00  0.2400E+00
    -28.682  0.0000E+00  0.2400E+00
    -28.475  0.0000E+00  0.2400E+00
    -28.268  0.0000E+00  0.2400E+00
    -28.061  0.0000E+00  0.2400E+00
    -27.854  0.0000E+00  0.2400E+00
    -27.647  0.0000E+00  0.2400E+00
    -27.440  0.0000E+00  0.2400E+00
    -27.233  0.0000E+00  0.2400E+00
    -27.026  0.0000E+00  0.2400E+00
    -26.818  0.0000E+00  0.2400E+00
    -26.611  0.0000E+00  0.2400E+00
    -26.404  0.0000E+00  0.2400E+00
    -26.197  0.0000E+00  0.2400E+00
    -25.990 -0.1549E-33  0.2400E+00
    -25.783 -0.2960E-26  0.2400E+00
    -25.576 -0.6568E-20  0.2400E+00
    -25.369 -0.1640E-14  0.2400E+00
    -25.162 -0.4833E-10  0.2400E+00
    -24.955 -0.1634E-06  0.2400E+00
    -24.748 -0.6189E-04  0.2400E+00
    -24.541 -0.2392E-02  0.2395E+00
    -24.334  0.1482E-02  0.2398E+00
    -24.127  0.1236E+00  0.2654E+00
    -23.920  0.2967E+00  0.3268E+00
    -23.712  0.4923E+00  0.4288E+00
    -23.505  0.5438E+00  0.5414E+00
    -23.298  0.8087E+00  0.7088E+00
    -23.091  0.7012E+00  0.8540E+00
    -22.884  0.4087E+00  0.9386E+00
    -22.677  0.1120E+00  0.9618E+00
    -22.470 -0.7212E-02  0.9604E+00
    -22.263 -0.1694E-02  0.9600E+00
    -22.056 -0.2527E-04  0.9600E+00
    -21.849 -0.4401E-07  0.9600E+00
    -21.642 -0.8962E-11  0.9600E+00
    -21.435 -0.2145E-15  0.9600E+00
    -21.228  0.0000E+00  0.9600E+00
    -21.021  0.0000E+00  0.9600E+00
    -20.814  0.0000E+00  0.9600E+00
    -20.607  0.0000E+00  0.9600E+00
    -20.399  0.0000E+00  0.9600E+00
    -20.192  0.0000E+00  0.9600E+00
    -19.985  0.0000E+00  0.9600E+00
    -19.778  0.0000E+00  0.9600E+00
    -19.571  0.0000E+00  0.9600E+00
    -19.364  0.0000E+00  0.9600E+00
    -19.157  0.0000E+00  0.9600E+00
    -18.950  0.0000E+00  0.9600E+00
    -18.743  0.0000E+00  0.9600E+00
    -18.536  0.0000E+00  0.9600E+00
    -18.329  0.0000E+00  0.9600E+00
    -18.122  0.0000E+00  0.9600E+00
    -17.915  0.0000E+00  0.9600E+00
    -17.708  0.0000E+00  0.9600E+00
    -17.501  0.0000E+00  0.9600E+00
    -17.293  0.0000E+00  0.9600E+00
    -17.086  0.0000E+00  0.9600E+00
    -16.879  0.0000E+00  0.9600E+00
    -16.672  0.0000E+00  0.9600E+00
    -16.465  0.0000E+00  0.9600E+00
    -16.258  0.0000E+00  0.9600E+00
    -16.051  0.0000E+00  0.9600E+00
    -15.844  0.0000E+00  0.9600E+00
    -15.637  0.0000E+00  0.9600E+00
    -15.430  0.0000E+00  0.9600E+00
    -15.223  0.0000E+00  0.9600E+00
    -15.016  0.0000E+00  0.9600E+00
    -14.809  0.0000E+00  0.9600E+00
    -14.602  0.0000E+00  0.9600E+00
    -14.395  0.0000E+00  0.9600E+00
    -14.187  0.0000E+00  0.9600E+00
    -13.980  0.0000E+00  0.9600E+00
    -13.773  0.0000E+00  0.9600E+00
    -13.566  0.0000E+00  0.9600E+00
    -13.359  0.0000E+00  0.9600E+00
    -13.152  0.0000E+00  0.9600E+00
    -12.945  0.0000E+00  0.9600E+00
    -12.738  0.0000E+00  0.9600E+00
    -12.531  0.0000E+00  0.9600E+00
    -12.324  0.0000E+00  0.9600E+00
    -12.117  0.0000E+00  0.9600E+00
    -11.910  0.0000E+00  0.9600E+00
    -11.703  0.0000E+00  0.9600E+00
    -11.496  0.0000E+00  0.9600E+00
    -11.289  0.0000E+00  0.9600E+00
    -11.082  0.0000E+00  0.9600E+00
    -10.874  0.0000E+00  0.9600E+00
    -10.667  0.0000E+00  0.9600E+00
    -10.460  0.0000E+00  0.9600E+00
    -10.253  0.0000E+00  0.9600E+00
    -10.046  0.0000E+00  0.9600E+00
     -9.839  0.0000E+00  0.9600E+00
     -9.632  0.0000E+00  0.9600E+00
     -9.425  0.0000E+00  0.9600E+00
     -9.218  0.0000E+00  0.9600E+00
     -9.011  0.0000E+00  0.9600E+00
     -8.804  0.0000E+00  0.9600E+00
     -8.597  0.0000E+00  0.9600E+00
     -8.390  0.0000E+00  0.9600E+00
     -8.183  0.0000E+00  0.9600E+00
     -7.976  0.0000E+00  0.9600E+00
     -7.768  0.0000E+00  0.9600E+00
     -7.561  0.0000E+00  0.9600E+00
     -7.354  0.0000E+00  0.9600E+00
     -7.147  0.0000E+00  0.9600E+00
     -6.940  0.0000E+00  0.9600E+00
     -6.733  0.0000E+00  0.9600E+00
     -6.526  0.0000E+00  0.9600E+00
     -6.319  0.0000E+00  0.9600E+00
     -6.112  0.0000E+00  0.9600E+00
     -5.905  0.0000E+00  0.9600E+00
     -5.698  0.0000E+00  0.9600E+00
     -5.491  0.0000E+00  0.9600E+00
     -5.284  0.0000E+00  0.9600E+00
     -5.077  0.0000E+00  0.9600E+00
     -4.870  0.0000E+00  0.9600E+00
     -4.663  0.0000E+00  0.9600E+00
     -4.455  0.0000E+00  0.9600E+00
     -4.248  0.0000E+00  0.9600E+00
     -4.041  0.0000E+00  0.9600E+00
     -3.834  0.0000E+00  0.9600E+00
     -3.627  0.0000E+00  0.9600E+00
     -3.420  0.0000E+00  0.9600E+00
     -3.213  0.0000E+00  0.9600E+00
     -3.006  0.0000E+00  0.9600E+00
     -2.799  0.0000E+00  0.9600E+00
     -2.592  0.0000E+00  0.9600E+00
     -2.385  0.0000E+00  0.9600E+00
     -2.178  0.0000E+00  0.9600E+00
     -1.971  0.0000E+00  0.9600E+00
     -1.764 -0.7333E-33  0.9600E+00
     -1.557 -0.7573E-26  0.9600E+00
     -1.349 -0.9176E-20  0.9600E+00
     -1.142 -0.1262E-14  0.9600E+00
     -0.935 -0.2092E-10  0.9600E+00
     -0.728 -0.4090E-07  0.9600E+00
     -0.521 -0.9456E-05  0.9600E+00
     -0.314 -0.2365E-03  0.9599E+00
     -0.107  0.5613E-03  0.9601E+00
      0.100  0.1167E-01  0.9625E+00
      0.307  0.2462E-01  0.9676E+00
      0.514  0.2714E-01  0.9732E+00
      0.721  0.3909E-01  0.9813E+00
      0.928  0.3460E-01  0.9885E+00
      1.135  0.4555E-01  0.9979E+00
      1.342  0.6424E-01  0.1011E+01
      1.549  0.6811E-01  0.1025E+01
      1.757  0.7254E-01  0.1040E+01
      1.964  0.8792E-01  0.1059E+01
      2.171  0.1072E+00  0.1081E+01
      2.378  0.1202E+00  0.1106E+01
      2.585  0.1889E+00  0.1145E+01
      2.792  0.3274E+00  0.1213E+01
      2.999  0.4168E+00  0.1299E+01
      3.206  0.4939E+00  0.1401E+01
      3.413  0.5527E+00  0.1516E+01
      3.620  0.5941E+00  0.1639E+01
      3.827  0.6020E+00  0.1763E+01
      4.034  0.6455E+00  0.1897E+01
      4.241  0.6397E+00  0.2029E+01
      4.448  0.5711E+00  0.2148E+01
      4.655  0.5499E+00  0.2261E+01
      4.862  0.6243E+00  0.2391E+01
      5.070  0.7642E+00  0.2549E+01
      5.277  0.8174E+00  0.2718E+01
      5.484  0.8014E+00  0.2884E+01
      5.691  0.8161E+00  0.3053E+01
      5.898  0.8075E+00  0.3220E+01
      6.105  0.8539E+00  0.3397E+01
      6.312  0.8716E+00  0.3578E+01
      6.519  0.8612E+00  0.3756E+01
      6.726  0.7762E+00  0.3917E+01
      6.933  0.6335E+00  0.4048E+01
      7.140  0.5037E+00  0.4152E+01
      7.347  0.4020E+00  0.4235E+01
      7.554  0.3618E+00  0.4310E+01
      7.761  0.3804E+00  0.4389E+01
      7.968  0.3962E+00  0.4471E+01
      8.176  0.4763E+00  0.4570E+01
      8.383  0.5312E+00  0.4680E+01
      8.590  0.3923E+00  0.4761E+01
      8.797  0.1753E+00  0.4797E+01
      9.004  0.1700E-01  0.4801E+01
      9.211 -0.3619E-02  0.4800E+01
      9.418 -0.2649E-03  0.4800E+01
      9.625 -0.2345E-05  0.4800E+01
      9.832 -0.2771E-08  0.4800E+01
     10.039 -0.4127E-12  0.4800E+01
     10.246 -0.7128E-17  0.4800E+01
     10.453  0.0000E+00  0.4800E+01
     10.660  0.0000E+00  0.4800E+01
     10.867  0.0000E+00  0.4800E+01
     11.074  0.0000E+00  0.4800E+01
     11.281  0.0000E+00  0.4800E+01
     11.489  0.0000E+00  0.4800E+01
     11.696  0.0000E+00  0.4800E+01
