   29   29   50    1
  0.1632129E+02  0.5473281E-09  0.8209921E-09  0.1128346E-08  0.5000000E-15
  1.000000000000000E-004
  CAR 
 Nb - Mo - Ta - Ti - V SQS               
    193    172    120
 
  0.0000000E+00  0.0000000E+00  0.0000000E+00  0.2915452E-02
    1      -47.600243   1.000000
    2      -47.505008   1.000000
    3      -47.292401   1.000000
    4      -47.170784   1.000000
    5      -47.102337   1.000000
    6      -47.048710   1.000000
    7      -24.256220   1.000000
    8      -24.072209   1.000000
    9      -23.895109   1.000000
   10      -23.828883   1.000000
   11      -23.737979   1.000000
   12      -23.644544   1.000000
   13      -23.615438   1.000000
   14      -23.465813   1.000000
   15      -23.435758   1.000000
   16      -23.362423   1.000000
   17      -23.349702   1.000000
   18      -23.321837   1.000000
   19      -23.262950   1.000000
   20      -23.191542   1.000000
   21      -23.132577   1.000000
   22      -23.033927   1.000000
   23      -22.934945   1.000000
   24      -22.790757   1.000000
   25       -0.092510   1.000000
   26        1.386073   1.000000
   27        1.499529   1.000000
   28        2.267688   1.000000
   29        2.447444   1.000000
   30        2.563400   1.000000
   31        2.699046   1.000000
   32        2.731116   1.000000
   33        2.819020   1.000000
   34        2.839951   1.000000
   35        2.954526   1.000000
   36        3.049989   1.000000
   37        3.085349   1.000000
   38        3.157351   1.000000
   39        3.205589   1.000000
   40        3.231804   1.000000
   41        3.358433   1.000000
   42        3.420779   1.000000
   43        3.489429   1.000000
   44        3.553776   1.000000
   45        3.676262   1.000000
   46        3.737441   1.000000
   47        3.836002   1.000000
   48        3.881191   1.000000
   49        3.930751   1.000000
   50        3.941448   1.000000
   51        4.067152   1.000000
   52        4.102399   1.000000
   53        4.243505   1.000000
   54        4.349750   1.000000
   55        4.393798   1.000000
   56        4.457800   1.000000
   57        4.592512   1.000000
   58        4.623498   1.000000
   59        4.716538   1.000000
   60        4.755603   1.000000
   61        4.822980   1.000000
   62        4.850027   1.000000
   63        4.929749   1.000000
   64        4.961747   1.000000
   65        4.995704   1.000000
   66        5.063391   1.000000
   67        5.082230   1.000000
   68        5.143366   1.000000
   69        5.185488   1.000000
   70        5.244704   1.000000
   71        5.325176   1.000000
   72        5.354625   1.000000
   73        5.379391   1.000000
   74        5.525106   1.000000
   75        5.550074   1.000000
   76        5.595602   1.000000
   77        5.651460   1.000000
   78        5.712244   1.000000
   79        5.832498   1.000000
   80        5.900342   1.000001
   81        5.963892   1.000007
   82        6.015199   1.000035
   83        6.066841   1.000153
   84        6.088598   1.000272
   85        6.156109   1.001362
   86        6.204154   1.003643
   87        6.287675   1.014218
   88        6.316640   1.020287
   89        6.367890   1.031606
   90        6.399524   1.035388
   91        6.487452   0.991739
   92        6.585134   0.754824
   93        6.608980   0.664805
   94        6.676309   0.384772
   95        6.781380   0.053733
   96        6.855585  -0.028303
   97        6.871255  -0.033200
   98        6.942085  -0.029117
   99        7.001769  -0.015817
  100        7.016182  -0.013052
  101        7.159137  -0.000916
  102        7.265821  -0.000058
  103        7.290127  -0.000028
  104        7.544046  -0.000000
  105        7.636993  -0.000000
  106        7.739412  -0.000000
  107        7.851905  -0.000000
  108        7.970766  -0.000000
  109        8.027938  -0.000000
  110        8.207860  -0.000000
  111        8.306092  -0.000000
  112        8.368494  -0.000000
  113        8.466054  -0.000000
  114        8.568015  -0.000000
  115        8.597655  -0.000000
  116        8.669980  -0.000000
  117        8.680233  -0.000000
  118        8.727052  -0.000000
  119        8.757837  -0.000000
  120        8.832798  -0.000000
 
  0.1428571E+00  0.0000000E+00 -0.1561251E-16  0.5830904E-02
    1      -47.597680   1.000000
    2      -47.504818   1.000000
    3      -47.291905   1.000000
    4      -47.170850   1.000000
    5      -47.102548   1.000000
    6      -47.051271   1.000000
    7      -24.200919   1.000000
    8      -24.071153   1.000000
    9      -23.891475   1.000000
   10      -23.826394   1.000000
   11      -23.735196   1.000000
   12      -23.644805   1.000000
   13      -23.617648   1.000000
   14      -23.469439   1.000000
   15      -23.436703   1.000000
   16      -23.363182   1.000000
   17      -23.352215   1.000000
   18      -23.325650   1.000000
   19      -23.265591   1.000000
   20      -23.194316   1.000000
   21      -23.133210   1.000000
   22      -23.038170   1.000000
   23      -22.936242   1.000000
   24      -22.855943   1.000000
   25        0.070151   1.000000
   26        1.520393   1.000000
   27        1.639810   1.000000
   28        2.305847   1.000000
   29        2.576792   1.000000
   30        2.673732   1.000000
   31        2.749696   1.000000
   32        2.814937   1.000000
   33        2.895801   1.000000
   34        2.929253   1.000000
   35        3.067743   1.000000
   36        3.158213   1.000000
   37        3.188274   1.000000
   38        3.234989   1.000000
   39        3.281344   1.000000
   40        3.342184   1.000000
   41        3.425963   1.000000
   42        3.469210   1.000000
   43        3.519765   1.000000
   44        3.649914   1.000000
   45        3.684798   1.000000
   46        3.813879   1.000000
   47        3.874703   1.000000
   48        3.929667   1.000000
   49        3.972948   1.000000
   50        4.047139   1.000000
   51        4.110654   1.000000
   52        4.139987   1.000000
   53        4.262891   1.000000
   54        4.374248   1.000000
   55        4.442260   1.000000
   56        4.492477   1.000000
   57        4.555784   1.000000
   58        4.637537   1.000000
   59        4.740017   1.000000
   60        4.765545   1.000000
   61        4.859154   1.000000
   62        4.944009   1.000000
   63        4.954089   1.000000
   64        4.995300   1.000000
   65        5.088155   1.000000
   66        5.112184   1.000000
   67        5.157653   1.000000
   68        5.179152   1.000000
   69        5.219967   1.000000
   70        5.300774   1.000000
   71        5.345211   1.000000
   72        5.398799   1.000000
   73        5.462217   1.000000
   74        5.493137   1.000000
   75        5.577206   1.000000
   76        5.613657   1.000000
   77        5.641091   1.000000
   78        5.686696   1.000000
   79        5.779882   1.000000
   80        5.868688   1.000000
   81        5.902398   1.000001
   82        5.985665   1.000014
   83        6.044721   1.000083
   84        6.074564   1.000189
   85        6.136179   1.000870
   86        6.212906   1.004292
   87        6.270716   1.011208
   88        6.317150   1.020402
   89        6.342127   1.026145
   90        6.421925   1.034037
   91        6.470632   1.009769
   92        6.505650   0.965235
   93        6.537223   0.900194
   94        6.622188   0.611466
   95        6.642121   0.528201
   96        6.712536   0.244859
   97        6.741201   0.151448
   98        6.832100  -0.014159
   99        6.927281  -0.032044
  100        6.989881  -0.018310
  101        7.090164  -0.003874
  102        7.123383  -0.002004
  103        7.217642  -0.000217
  104        7.368397  -0.000002
  105        7.434510  -0.000000
  106        7.538624  -0.000000
  107        7.652527  -0.000000
  108        7.793852  -0.000000
  109        7.875526  -0.000000
  110        8.043905  -0.000000
  111        8.181495  -0.000000
  112        8.194707  -0.000000
  113        8.277832  -0.000000
  114        8.321702  -0.000000
  115        8.352581  -0.000000
  116        8.385473  -0.000000
  117        8.473425  -0.000000
  118        8.548035  -0.000000
  119        8.627328  -0.000000
  120        8.664999  -0.000000
 
  0.2857143E+00  0.1387779E-16  0.3469447E-17  0.5830904E-02
    1      -47.591818   1.000000
    2      -47.504389   1.000000
    3      -47.290786   1.000000
    4      -47.171003   1.000000
    5      -47.103200   1.000000
    6      -47.056953   1.000000
    7      -24.090716   1.000000
    8      -24.032995   1.000000
    9      -23.876317   1.000000
   10      -23.820749   1.000000
   11      -23.728770   1.000000
   12      -23.645490   1.000000
   13      -23.622468   1.000000
   14      -23.478178   1.000000
   15      -23.438258   1.000000
   16      -23.366074   1.000000
   17      -23.357155   1.000000
   18      -23.334450   1.000000
   19      -23.271914   1.000000
   20      -23.201386   1.000000
   21      -23.144155   1.000000
   22      -23.049616   1.000000
   23      -23.025018   1.000000
   24      -22.932068   1.000000
   25        0.531192   1.000000
   26        1.878870   1.000000
   27        2.015532   1.000000
   28        2.431720   1.000000
   29        2.705446   1.000000
   30        2.862964   1.000000
   31        2.944680   1.000000
   32        3.001393   1.000000
   33        3.078614   1.000000
   34        3.173354   1.000000
   35        3.235318   1.000000
   36        3.347952   1.000000
   37        3.375880   1.000000
   38        3.456845   1.000000
   39        3.477507   1.000000
   40        3.520714   1.000000
   41        3.581258   1.000000
   42        3.641831   1.000000
   43        3.722737   1.000000
   44        3.772710   1.000000
   45        3.872503   1.000000
   46        3.881280   1.000000
   47        3.964018   1.000000
   48        4.020226   1.000000
   49        4.094922   1.000000
   50        4.185706   1.000000
   51        4.242967   1.000000
   52        4.335227   1.000000
   53        4.420454   1.000000
   54        4.432387   1.000000
   55        4.530370   1.000000
   56        4.567489   1.000000
   57        4.661048   1.000000
   58        4.738042   1.000000
   59        4.776710   1.000000
   60        4.809687   1.000000
   61        4.911565   1.000000
   62        4.972973   1.000000
   63        5.046026   1.000000
   64        5.089276   1.000000
   65        5.120059   1.000000
   66        5.164454   1.000000
   67        5.195153   1.000000
   68        5.237035   1.000000
   69        5.285764   1.000000
   70        5.350595   1.000000
   71        5.419922   1.000000
   72        5.486028   1.000000
   73        5.535223   1.000000
   74        5.554864   1.000000
   75        5.610499   1.000000
   76        5.638732   1.000000
   77        5.664143   1.000000
   78        5.746431   1.000000
   79        5.787454   1.000000
   80        5.813017   1.000000
   81        5.888177   1.000001
   82        5.923093   1.000002
   83        6.001819   1.000024
   84        6.019776   1.000041
   85        6.059628   1.000126
   86        6.139233   1.000933
   87        6.210105   1.004075
   88        6.232591   1.006100
   89        6.287110   1.014111
   90        6.305689   1.017877
   91        6.396909   1.035281
   92        6.412004   1.035187
   93        6.473268   1.007325
   94        6.489286   0.989410
   95        6.568058   0.812703
   96        6.598013   0.707368
   97        6.668651   0.416420
   98        6.712821   0.243842
   99        6.746856   0.135261
  100        6.783919   0.048918
  101        6.874479  -0.033835
  102        6.965997  -0.023712
  103        6.977897  -0.020976
  104        7.063476  -0.006261
  105        7.174443  -0.000641
  106        7.198793  -0.000353
  107        7.299267  -0.000021
  108        7.446641  -0.000000
  109        7.558510  -0.000000
  110        7.608160  -0.000000
  111        7.683321  -0.000000
  112        7.779679  -0.000000
  113        7.838606  -0.000000
  114        7.898966  -0.000000
  115        7.979198  -0.000000
  116        8.082274  -0.000000
  117        8.190764  -0.000000
  118        8.303070  -0.000000
  119        8.330977  -0.000000
  120        8.464480  -0.000000
 
  0.4285714E+00  0.5551115E-16 -0.4163336E-16  0.5830904E-02
    1      -47.587010   1.000000
    2      -47.504041   1.000000
    3      -47.289884   1.000000
    4      -47.171130   1.000000
    5      -47.103955   1.000000
    6      -47.061386   1.000000
    7      -24.081157   1.000000
    8      -23.927111   1.000000
    9      -23.816372   1.000000
   10      -23.793567   1.000000
   11      -23.723158   1.000000
   12      -23.646177   1.000000
   13      -23.626144   1.000000
   14      -23.485551   1.000000
   15      -23.439293   1.000000
   16      -23.375110   1.000000
   17      -23.360525   1.000000
   18      -23.346218   1.000000
   19      -23.284964   1.000000
   20      -23.256097   1.000000
   21      -23.205012   1.000000
   22      -23.107288   1.000000
   23      -23.054505   1.000000
   24      -22.933519   1.000000
   25        1.189795   1.000000
   26        2.034950   1.000000
   27        2.370852   1.000000
   28        2.548304   1.000000
   29        2.632194   1.000000
   30        2.957194   1.000000
   31        3.060023   1.000000
   32        3.170418   1.000000
   33        3.298279   1.000000
   34        3.340797   1.000000
   35        3.387785   1.000000
   36        3.421356   1.000000
   37        3.502193   1.000000
   38        3.601502   1.000000
   39        3.646852   1.000000
   40        3.688979   1.000000
   41        3.752106   1.000000
   42        3.826235   1.000000
   43        3.881924   1.000000
   44        3.911881   1.000000
   45        3.964580   1.000000
   46        4.074330   1.000000
   47        4.138508   1.000000
   48        4.177952   1.000000
   49        4.233826   1.000000
   50        4.300081   1.000000
   51        4.414017   1.000000
   52        4.447486   1.000000
   53        4.506697   1.000000
   54        4.559750   1.000000
   55        4.579185   1.000000
   56        4.691144   1.000000
   57        4.724463   1.000000
   58        4.751434   1.000000
   59        4.829398   1.000000
   60        4.866986   1.000000
   61        4.908403   1.000000
   62        4.951605   1.000000
   63        5.012029   1.000000
   64        5.094888   1.000000
   65        5.159189   1.000000
   66        5.200297   1.000000
   67        5.239137   1.000000
   68        5.281798   1.000000
   69        5.355682   1.000000
   70        5.375220   1.000000
   71        5.426488   1.000000
   72        5.471930   1.000000
   73        5.517610   1.000000
   74        5.576523   1.000000
   75        5.587672   1.000000
   76        5.657043   1.000000
   77        5.694708   1.000000
   78        5.758962   1.000000
   79        5.785371   1.000000
   80        5.872559   1.000000
   81        5.926239   1.000002
   82        5.948139   1.000004
   83        6.010375   1.000031
   84        6.057996   1.000121
   85        6.071966   1.000176
   86        6.116089   1.000541
   87        6.156651   1.001378
   88        6.175542   1.002061
   89        6.246815   1.007743
   90        6.291137   1.014887
   91        6.314836   1.019883
   92        6.337875   1.025167
   93        6.358861   1.029826
   94        6.414423   1.034995
   95        6.455659   1.021186
   96        6.504161   0.967694
   97        6.533804   0.908447
   98        6.554450   0.854160
   99        6.625359   0.598393
  100        6.654189   0.477165
  101        6.776482   0.063473
  102        6.865823  -0.031857
  103        6.931174  -0.031328
  104        6.988915  -0.018520
  105        7.043725  -0.008669
  106        7.084688  -0.004291
  107        7.147944  -0.001180
  108        7.200109  -0.000341
  109        7.310920  -0.000015
  110        7.445801  -0.000000
  111        7.532197  -0.000000
  112        7.597434  -0.000000
  113        7.644047  -0.000000
  114        7.676773  -0.000000
  115        7.784924  -0.000000
  116        7.906018  -0.000000
  117        7.926268  -0.000000
  118        8.141107  -0.000000
  119        8.177910  -0.000000
  120        8.264695  -0.000000
 
 -0.6938894E-17  0.1428571E+00  0.1040834E-16  0.5830904E-02
    1      -47.600241   1.000000
    2      -47.505003   1.000000
    3      -47.292172   1.000000
    4      -47.171025   1.000000
    5      -47.102335   1.000000
    6      -47.048707   1.000000
    7      -24.256228   1.000000
    8      -24.072020   1.000000
    9      -23.895077   1.000000
   10      -23.825628   1.000000
   11      -23.738023   1.000000
   12      -23.644403   1.000000
   13      -23.615407   1.000000
   14      -23.465969   1.000000
   15      -23.435844   1.000000
   16      -23.362358   1.000000
   17      -23.349530   1.000000
   18      -23.321859   1.000000
   19      -23.263008   1.000000
   20      -23.191594   1.000000
   21      -23.132584   1.000000
   22      -23.037929   1.000000
   23      -22.935216   1.000000
   24      -22.790763   1.000000
   25       -0.020532   1.000000
   26        1.423510   1.000000
   27        1.576613   1.000000
   28        2.030952   1.000000
   29        2.507034   1.000000
   30        2.554821   1.000000
   31        2.637067   1.000000
   32        2.722968   1.000000
   33        2.794997   1.000000
   34        2.861297   1.000000
   35        2.964235   1.000000
   36        3.003311   1.000000
   37        3.067528   1.000000
   38        3.137071   1.000000
   39        3.166770   1.000000
   40        3.255589   1.000000
   41        3.363934   1.000000
   42        3.423860   1.000000
   43        3.490741   1.000000
   44        3.634559   1.000000
   45        3.716631   1.000000
   46        3.763166   1.000000
   47        3.774179   1.000000
   48        3.906786   1.000000
   49        3.942549   1.000000
   50        4.034374   1.000000
   51        4.123206   1.000000
   52        4.201791   1.000000
   53        4.236274   1.000000
   54        4.295795   1.000000
   55        4.337114   1.000000
   56        4.458472   1.000000
   57        4.560792   1.000000
   58        4.595879   1.000000
   59        4.699022   1.000000
   60        4.775550   1.000000
   61        4.848313   1.000000
   62        4.897779   1.000000
   63        4.924483   1.000000
   64        4.993023   1.000000
   65        5.015126   1.000000
   66        5.051464   1.000000
   67        5.112616   1.000000
   68        5.189366   1.000000
   69        5.234035   1.000000
   70        5.278770   1.000000
   71        5.328519   1.000000
   72        5.376960   1.000000
   73        5.459783   1.000000
   74        5.485649   1.000000
   75        5.581690   1.000000
   76        5.621860   1.000000
   77        5.653452   1.000000
   78        5.706932   1.000000
   79        5.835533   1.000000
   80        5.901775   1.000001
   81        5.980205   1.000012
   82        6.012940   1.000033
   83        6.090288   1.000284
   84        6.097428   1.000341
   85        6.161952   1.001546
   86        6.196590   1.003149
   87        6.256849   1.009086
   88        6.284653   1.013649
   89        6.348936   1.027684
   90        6.396090   1.035238
   91        6.451345   1.023750
   92        6.489558   0.989058
   93        6.571805   0.800536
   94        6.618541   0.626386
   95        6.657186   0.464507
   96        6.703022   0.279614
   97        6.818012  -0.000922
   98        6.952840  -0.026740
   99        6.985520  -0.019265
  100        7.061777  -0.006445
  101        7.230665  -0.000154
  102        7.343842  -0.000005
  103        7.433504  -0.000000
  104        7.535253  -0.000000
  105        7.635536  -0.000000
  106        7.715498  -0.000000
  107        7.817481  -0.000000
  108        7.908659  -0.000000
  109        7.964582  -0.000000
  110        8.170524  -0.000000
  111        8.247187  -0.000000
  112        8.320987  -0.000000
  113        8.382337  -0.000000
  114        8.454147  -0.000000
  115        8.505761  -0.000000
  116        8.535172  -0.000000
  117        8.594800  -0.000000
  118        8.654758  -0.000000
  119        8.689025  -0.000000
  120        8.750202  -0.000000
 
  0.1428571E+00  0.1428571E+00 -0.1387779E-16  0.5830904E-02
    1      -47.597681   1.000000
    2      -47.504823   1.000000
    3      -47.292125   1.000000
    4      -47.170620   1.000000
    5      -47.102551   1.000000
    6      -47.051273   1.000000
    7      -24.200912   1.000000
    8      -24.071334   1.000000
    9      -23.891519   1.000000
   10      -23.829537   1.000000
   11      -23.735168   1.000000
   12      -23.644952   1.000000
   13      -23.617671   1.000000
   14      -23.469470   1.000000
   15      -23.436659   1.000000
   16      -23.363234   1.000000
   17      -23.352177   1.000000
   18      -23.325607   1.000000
   19      -23.265537   1.000000
   20      -23.194267   1.000000
   21      -23.133200   1.000000
   22      -23.034328   1.000000
   23      -22.935990   1.000000
   24      -22.855938   1.000000
   25        0.070230   1.000000
   26        1.480018   1.000000
   27        1.670533   1.000000
   28        2.304109   1.000000
   29        2.552457   1.000000
   30        2.666459   1.000000
   31        2.752102   1.000000
   32        2.825748   1.000000
   33        2.850229   1.000000
   34        2.899284   1.000000
   35        2.988465   1.000000
   36        3.089399   1.000000
   37        3.157581   1.000000
   38        3.215635   1.000000
   39        3.274311   1.000000
   40        3.303742   1.000000
   41        3.431716   1.000000
   42        3.515444   1.000000
   43        3.580669   1.000000
   44        3.660383   1.000000
   45        3.671610   1.000000
   46        3.827733   1.000000
   47        3.869101   1.000000
   48        3.950406   1.000000
   49        3.977968   1.000000
   50        4.039943   1.000000
   51        4.122497   1.000000
   52        4.192930   1.000000
   53        4.292071   1.000000
   54        4.381218   1.000000
   55        4.459647   1.000000
   56        4.513261   1.000000
   57        4.562585   1.000000
   58        4.651845   1.000000
   59        4.772537   1.000000
   60        4.819058   1.000000
   61        4.851576   1.000000
   62        4.910603   1.000000
   63        4.927440   1.000000
   64        4.998066   1.000000
   65        5.039191   1.000000
   66        5.063669   1.000000
   67        5.137354   1.000000
   68        5.173198   1.000000
   69        5.201806   1.000000
   70        5.269790   1.000000
   71        5.303642   1.000000
   72        5.393833   1.000000
   73        5.420784   1.000000
   74        5.478096   1.000000
   75        5.566168   1.000000
   76        5.594170   1.000000
   77        5.643809   1.000000
   78        5.693935   1.000000
   79        5.778588   1.000000
   80        5.843753   1.000000
   81        5.895439   1.000001
   82        5.929560   1.000002
   83        6.025085   1.000047
   84        6.076404   1.000198
   85        6.127146   1.000704
   86        6.188099   1.002663
   87        6.231264   1.005962
   88        6.289487   1.014566
   89        6.369266   1.031859
   90        6.428601   1.032680
   91        6.458125   1.019581
   92        6.529618   0.918148
   93        6.570041   0.806303
   94        6.654881   0.474241
   95        6.708292   0.260154
   96        6.776871   0.062679
   97        6.850485  -0.025985
   98        6.904514  -0.035043
   99        6.942445  -0.029040
  100        7.022944  -0.011863
  101        7.056219  -0.007077
  102        7.147460  -0.001193
  103        7.273093  -0.000047
  104        7.314052  -0.000013
  105        7.461923  -0.000000
  106        7.562845  -0.000000
  107        7.630086  -0.000000
  108        7.702947  -0.000000
  109        7.904864  -0.000000
  110        7.995131  -0.000000
  111        8.187762  -0.000000
  112        8.230761  -0.000000
  113        8.346556  -0.000000
  114        8.403914  -0.000000
  115        8.507937  -0.000000
  116        8.572246  -0.000000
  117        8.656551  -0.000000
  118        8.677924  -0.000000
  119        8.719827  -0.000000
  120        8.770004  -0.000000
 
  0.2857143E+00  0.1428571E+00  0.2775558E-16  0.5830904E-02
    1      -47.591822   1.000000
    2      -47.504400   1.000000
    3      -47.291291   1.000000
    4      -47.170475   1.000000
    5      -47.103205   1.000000
    6      -47.056957   1.000000
    7      -24.090974   1.000000
    8      -24.033144   1.000000
    9      -23.876378   1.000000
   10      -23.827977   1.000000
   11      -23.728696   1.000000
   12      -23.645824   1.000000
   13      -23.622570   1.000000
   14      -23.478134   1.000000
   15      -23.438133   1.000000
   16      -23.366147   1.000000
   17      -23.357218   1.000000
   18      -23.334379   1.000000
   19      -23.271781   1.000000
   20      -23.201296   1.000000
   21      -23.144128   1.000000
   22      -23.041883   1.000000
   23      -23.023742   1.000000
   24      -22.931623   1.000000
   25        0.465957   1.000000
   26        1.770214   1.000000
   27        1.985218   1.000000
   28        2.540338   1.000000
   29        2.641460   1.000000
   30        2.820864   1.000000
   31        2.938316   1.000000
   32        3.028981   1.000000
   33        3.071026   1.000000
   34        3.144071   1.000000
   35        3.191207   1.000000
   36        3.313438   1.000000
   37        3.392620   1.000000
   38        3.434756   1.000000
   39        3.462165   1.000000
   40        3.528540   1.000000
   41        3.601286   1.000000
   42        3.665508   1.000000
   43        3.714812   1.000000
   44        3.807901   1.000000
   45        3.860440   1.000000
   46        3.917898   1.000000
   47        3.981518   1.000000
   48        4.043485   1.000000
   49        4.139663   1.000000
   50        4.163756   1.000000
   51        4.219894   1.000000
   52        4.249835   1.000000
   53        4.350938   1.000000
   54        4.430153   1.000000
   55        4.531105   1.000000
   56        4.562956   1.000000
   57        4.666984   1.000000
   58        4.702413   1.000000
   59        4.818703   1.000000
   60        4.884132   1.000000
   61        4.906084   1.000000
   62        4.980252   1.000000
   63        5.030058   1.000000
   64        5.067122   1.000000
   65        5.105743   1.000000
   66        5.145599   1.000000
   67        5.198001   1.000000
   68        5.219535   1.000000
   69        5.269825   1.000000
   70        5.313466   1.000000
   71        5.364176   1.000000
   72        5.399981   1.000000
   73        5.479095   1.000000
   74        5.525089   1.000000
   75        5.554764   1.000000
   76        5.611419   1.000000
   77        5.657133   1.000000
   78        5.729024   1.000000
   79        5.792373   1.000000
   80        5.824848   1.000000
   81        5.866695   1.000000
   82        5.939842   1.000003
   83        6.001197   1.000023
   84        6.047781   1.000091
   85        6.100456   1.000368
   86        6.139221   1.000933
   87        6.192564   1.002910
   88        6.226556   1.005491
   89        6.275176   1.011955
   90        6.342213   1.026164
   91        6.386580   1.034440
   92        6.416426   1.034794
   93        6.443943   1.027463
   94        6.489456   0.989191
   95        6.541088   0.890513
   96        6.589356   0.739598
   97        6.643585   0.522019
   98        6.702257   0.282478
   99        6.778765   0.058859
  100        6.828050  -0.010751
  101        6.890701  -0.035422
  102        6.926337  -0.032211
  103        7.015367  -0.013200
  104        7.098852  -0.003282
  105        7.155173  -0.001003
  106        7.265563  -0.000058
  107        7.295064  -0.000024
  108        7.481484  -0.000000
  109        7.628391  -0.000000
  110        7.688431  -0.000000
  111        7.807119  -0.000000
  112        7.977138  -0.000000
  113        8.078043  -0.000000
  114        8.146467  -0.000000
  115        8.203766  -0.000000
  116        8.272494  -0.000000
  117        8.374233  -0.000000
  118        8.451143  -0.000000
  119        8.465865  -0.000000
  120        8.558484  -0.000000
 
  0.4285714E+00  0.1428571E+00 -0.2081668E-16  0.5830904E-02
    1      -47.587013   1.000000
    2      -47.504050   1.000000
    3      -47.290292   1.000000
    4      -47.170704   1.000000
    5      -47.103959   1.000000
    6      -47.061389   1.000000
    7      -24.081446   1.000000
    8      -23.927188   1.000000
    9      -23.822224   1.000000
   10      -23.793598   1.000000
   11      -23.723093   1.000000
   12      -23.646457   1.000000
   13      -23.626273   1.000000
   14      -23.485537   1.000000
   15      -23.439192   1.000000
   16      -23.375094   1.000000
   17      -23.360557   1.000000
   18      -23.346208   1.000000
   19      -23.284889   1.000000
   20      -23.256071   1.000000
   21      -23.204947   1.000000
   22      -23.107130   1.000000
   23      -23.047270   1.000000
   24      -22.933191   1.000000
   25        1.094219   1.000000
   26        2.067826   1.000000
   27        2.267384   1.000000
   28        2.464204   1.000000
   29        2.640630   1.000000
   30        2.823034   1.000000
   31        3.154614   1.000000
   32        3.213781   1.000000
   33        3.261981   1.000000
   34        3.365478   1.000000
   35        3.402548   1.000000
   36        3.499588   1.000000
   37        3.555029   1.000000
   38        3.616519   1.000000
   39        3.649321   1.000000
   40        3.700530   1.000000
   41        3.780551   1.000000
   42        3.814671   1.000000
   43        3.898097   1.000000
   44        3.923448   1.000000
   45        3.958906   1.000000
   46        4.052905   1.000000
   47        4.133711   1.000000