 running on   96 total cores
 distrk:  each k-point on   96 cores,    1 groups
 distr:  one band on    8 cores,   12 groups
 using from now: INCAR     
 vasp.5.4.4.18Apr17-6-g9f103f2a35 (build Aug 09 2018 16:20:53) complex          
  
 POSCAR found :  5 types and      29 ions
 scaLAPACK will be used

 ----------------------------------------------------------------------------- 
|                                                                             |
|  ADVICE TO THIS USER RUNNING 'VASP/VAMP'   (HEAR YOUR MASTER'S VOICE ...):  |
|                                                                             |
|      You enforced a specific xc-type in the INCAR file,                     |
|      a different type was found on the POTCAR file                          |
|          I HOPE YOU KNOW, WHAT YOU ARE  DOING                               |
|                                                                             |
 ----------------------------------------------------------------------------- 

 LDA part: xc-table for Pade appr. of Perdew
 POSCAR found :  5 types and      29 ions
 POSCAR, INCAR and KPOINTS ok, starting setup
 FFT: planning ...
 WAVECAR not read
 initial charge from wavefunction
 entering main loop
       N       E                     dE             d eps       ncg     rms          rms(c)
DAV:   1    -0.399806246735E+04   -0.39981E+04   -0.15809E+05 60756   0.196E+03
DAV:   2    -0.941644943255E+04   -0.54184E+04   -0.52140E+04 75204   0.121E+03
DAV:   3    -0.102784651741E+05   -0.86202E+03   -0.83807E+03 82560   0.516E+02
DAV:   4    -0.105264353200E+05   -0.24797E+03   -0.22329E+03 82560   0.232E+02
DAV:   5    -0.106975511536E+05   -0.17112E+03   -0.15341E+03 82560   0.173E+02BRMIX: very serious problems
 the old and the new charge density differ
 old charge density:   192.50000 new  193.00000
    0.569E+03
DAV:   6    -0.110326537822E+04    0.95943E+04   -0.25096E+04 65892   0.624E+02    0.268E+03
DAV:   7    -0.994968077937E+03    0.10830E+03   -0.16650E+04 71160   0.535E+02    0.202E+03
DAV:   8    -0.698753505163E+03    0.29621E+03   -0.50408E+03 72024   0.341E+02    0.180E+03
DAV:   9    -0.590205310580E+03    0.10855E+03   -0.90837E+02 75876   0.877E+01    0.172E+03
DAV:  10    -0.568399635198E+03    0.21806E+02   -0.19114E+02 71280   0.579E+01    0.167E+03
DAV:  11    -0.541147053420E+03    0.27253E+02   -0.49086E+01 76260   0.219E+01    0.164E+03
DAV:  12    -0.615545585172E+03   -0.74399E+02   -0.12989E+03 74112   0.174E+02    0.122E+03
DAV:  13    -0.530328048306E+03    0.85218E+02   -0.33673E+03 76872   0.219E+02    0.772E+02
DAV:  14    -0.349045204195E+03    0.18128E+03   -0.28168E+03 70980   0.217E+02    0.511E+02
DAV:  15    -0.362057658309E+03   -0.13012E+02   -0.12827E+03 71880   0.175E+02    0.290E+02
DAV:  16    -0.343173170849E+03    0.18884E+02   -0.55834E+02 71508   0.117E+02    0.233E+02
DAV:  17    -0.329765067618E+03    0.13408E+02   -0.15232E+02 71784   0.548E+01    0.216E+02
DAV:  18    -0.333378661140E+03   -0.36136E+01   -0.11198E+02 68892   0.546E+01    0.178E+02
DAV:  19    -0.330231688855E+03    0.31470E+01   -0.20202E+02 76596   0.723E+01    0.142E+02
DAV:  20    -0.317882609956E+03    0.12349E+02   -0.29000E+02 74700   0.826E+01    0.828E+01
DAV:  21    -0.313935228291E+03    0.39474E+01   -0.14132E+02 68424   0.603E+01    0.620E+01
DAV:  22    -0.309092642171E+03    0.48426E+01   -0.47596E+01 71820   0.315E+01    0.567E+01
DAV:  23    -0.307694997728E+03    0.13976E+01   -0.11270E+01 68772   0.160E+01    0.524E+01
DAV:  24    -0.306591889201E+03    0.11031E+01   -0.31005E+00 74028   0.707E+00    0.469E+01
DAV:  25    -0.305275054697E+03    0.13168E+01   -0.47473E+00 68340   0.709E+00    0.386E+01
DAV:  26    -0.305035262513E+03    0.23979E+00   -0.67773E+00 76608   0.980E+00    0.324E+01
DAV:  27    -0.304649673753E+03    0.38559E+00   -0.83042E+00 72492   0.107E+01    0.270E+01
DAV:  28    -0.303945350080E+03    0.70432E+00   -0.47745E+00 75900   0.764E+00    0.204E+01
DAV:  29    -0.303825226249E+03    0.12012E+00   -0.14891E+00 72696   0.377E+00    0.149E+01
DAV:  30    -0.303760266822E+03    0.64959E-01   -0.71162E-01 75372   0.252E+00    0.116E+01
DAV:  31    -0.303703675404E+03    0.56591E-01   -0.22517E-01 72516   0.168E+00    0.955E+00
DAV:  32    -0.303695467666E+03    0.82077E-02   -0.14703E-01 74076   0.131E+00    0.840E+00
DAV:  33    -0.303650270730E+03    0.45197E-01   -0.12664E-01 70068   0.111E+00    0.666E+00
DAV:  34    -0.303641850892E+03    0.84198E-02   -0.39510E-02 68688   0.748E-01    0.579E+00
DAV:  35    -0.303628778920E+03    0.13072E-01   -0.62602E-02 68136   0.868E-01    0.407E+00
DAV:  36    -0.303618791811E+03    0.99871E-02   -0.47334E-02 69840   0.689E-01    0.309E+00
DAV:  37    -0.303616465484E+03    0.23263E-02   -0.13508E-02 68652   0.453E-01    0.232E+00
DAV:  38    -0.303611567027E+03    0.48985E-02   -0.17359E-02 67836   0.546E-01    0.144E+00
DAV:  39    -0.303609621581E+03    0.19454E-02   -0.15203E-02 62664   0.537E-01    0.878E-01
DAV:  40    -0.303608660639E+03    0.96094E-03   -0.36824E-03 66744   0.257E-01    0.793E-01
DAV:  41    -0.303608338407E+03    0.32223E-03   -0.10421E-03 55896   0.141E-01    0.628E-01
DAV:  42    -0.303608121269E+03    0.21714E-03   -0.68711E-04 49128   0.116E-01    0.436E-01
DAV:  43    -0.303607717395E+03    0.40387E-03   -0.69657E-04 45564   0.127E-01    0.258E-01
DAV:  44    -0.303607564135E+03    0.15326E-03   -0.79077E-04 50484   0.102E-01    0.878E-02
DAV:  45    -0.303607562265E+03    0.18698E-05   -0.98860E-05 27288   0.476E-02
   1 F= -.30360756E+03 E0= -.30359966E+03  d E =-.303608E+03
 curvature:   0.00 expect dE= 0.000E+00 dE for cont linesearch  0.000E+00
 trial: gam= 0.00000 g(F)=  0.816E+00 g(S)=  0.325E+00 ort = 0.000E+00 (trialstep = 0.100E+01)
 search vector abs. value=  0.114E+01
 bond charge predicted
       N       E                     dE             d eps       ncg     rms          rms(c)
DAV:   1    -0.305052225069E+03   -0.14447E+01   -0.13222E+02 45144   0.482E+01    0.122E+01
DAV:   2    -0.306863879983E+03   -0.18117E+01   -0.29109E+01 75240   0.290E+01    0.120E+01
DAV:   3    -0.305431543549E+03    0.14323E+01   -0.21663E+01 72960   0.189E+01    0.977E+00
DAV:   4    -0.304944597540E+03    0.48695E+00   -0.13807E+01 66972   0.184E+01    0.780E+00
DAV:   5    -0.304466133794E+03    0.47846E+00   -0.65653E+00 72984   0.121E+01    0.504E+00
DAV:   6    -0.304311859548E+03    0.15427E+00   -0.29743E+00 74664   0.764E+00    0.370E+00
DAV:   7    -0.304243019749E+03    0.68840E-01   -0.17403E+00 72588   0.584E+00    0.296E+00
DAV:   8    -0.304199041535E+03    0.43978E-01   -0.92798E-01 77232   0.412E+00    0.193E+00
DAV:   9    -0.304172227662E+03    0.26814E-01   -0.28426E-01 74448   0.222E+00    0.111E+00
DAV:  10    -0.304169884447E+03    0.23432E-02   -0.10773E-01 71052   0.134E+00    0.918E-01
DAV:  11    -0.304174040249E+03   -0.41558E-02   -0.55215E-02 67176   0.105E+00    0.834E-01
DAV:  12    -0.304176296147E+03   -0.22559E-02   -0.54416E-02 68748   0.104E+00    0.554E-01
DAV:  13    -0.304177682661E+03   -0.13865E-02   -0.38773E-02 70620   0.840E-01    0.429E-01
DAV:  14    -0.304177363587E+03    0.31907E-03   -0.26848E-02 68484   0.757E-01    0.336E-01
DAV:  15    -0.304176419580E+03    0.94401E-03   -0.98529E-03 68124   0.452E-01    0.132E-01
DAV:  16    -0.304176299505E+03    0.12007E-03   -0.26538E-03 61224   0.198E-01    0.101E-01
DAV:  17    -0.304176242847E+03    0.56657E-04   -0.73069E-04 49836   0.109E-01
   2 F= -.30417624E+03 E0= -.30417046E+03  d E =-.568681E+00
 trial-energy change:   -0.568681  1 .order   -0.554252   -1.140326    0.031821
 step:   0.9747(harm=  0.9729)  dis= 0.06217  next Energy=  -304.176646 (dE=-0.569E+00)
 bond charge predicted
       N       E                     dE             d eps       ncg     rms          rms(c)
DAV:   1    -0.304177598544E+03   -0.12990E-02   -0.86821E-02 50976   0.125E+00    0.321E-01
DAV:   2    -0.304179228020E+03   -0.16295E-02   -0.22910E-02 75036   0.798E-01    0.407E-01
DAV:   3    -0.304177729288E+03    0.14987E-02   -0.19205E-02 73620   0.649E-01    0.256E-01
DAV:   4    -0.304177299815E+03    0.42947E-03   -0.82066E-03 63864   0.398E-01    0.187E-01
DAV:   5    -0.304177066885E+03    0.23293E-03   -0.50617E-03 63240   0.326E-01    0.158E-01
DAV:   6    -0.304176859715E+03    0.20717E-03   -0.25501E-03 62232   0.235E-01    0.971E-02
DAV:   7    -0.304176820417E+03    0.39298E-04   -0.13921E-03 55356   0.177E-01    0.884E-02
DAV:   8    -0.304176769247E+03    0.51169E-04   -0.72450E-04 44796   0.133E-01
   3 F= -.30417677E+03 E0= -.30417093E+03  d E =-.569207E+00
 curvature:  -0.48 expect dE=-0.582E+00 dE for cont linesearch -0.351E-05
 trial: gam= 1.05659 g(F)=  0.377E+00 g(S)=  0.825E+00 ort =-0.288E-02 (trialstep = 0.460E+00)
 search vector abs. value=  0.247E+01
 bond charge predicted
       N       E                     dE             d eps       ncg     rms          rms(c)
DAV:   1    -0.304375372546E+03   -0.19855E+00   -0.54017E+01 41280   0.257E+01    0.360E+00
DAV:   2    -0.305104822750E+03   -0.72945E+00   -0.72033E+00 71664   0.130E+01    0.603E+00
DAV:   3    -0.304663644960E+03    0.44118E+00   -0.38301E+00 73224   0.856E+00    0.268E+00
DAV:   4    -0.304697100955E+03   -0.33456E-01   -0.11306E+00 70968   0.511E+00    0.306E+00
DAV:   5    -0.304600903494E+03    0.96197E-01   -0.62850E-01 68328   0.395E+00    0.126E+00
DAV:   6    -0.304603214027E+03   -0.23105E-02   -0.29719E-01 72876   0.245E+00    0.148E+00
DAV:   7    -0.304593101115E+03    0.10113E-01   -0.25579E-01 68856   0.232E+00    0.109E+00
DAV:   8    -0.304582310324E+03    0.10791E-01   -0.92003E-02 73116   0.141E+00    0.486E-01
DAV:   9    -0.304580783533E+03    0.15268E-02   -0.26523E-02 73644   0.683E-01    0.359E-01
DAV:  10    -0.304580508520E+03    0.27501E-03   -0.11036E-02 59064   0.481E-01    0.300E-01
DAV:  11    -0.304580328604E+03    0.17992E-03   -0.49092E-03 61464   0.309E-01    0.206E-01
DAV:  12    -0.304580416595E+03   -0.87991E-04   -0.27744E-03 61692   0.209E-01    0.155E-01
DAV:  13    -0.304580617025E+03   -0.20043E-03   -0.31389E-03 63624   0.259E-01    0.155E-01
DAV:  14    -0.304580471886E+03    0.14514E-03   -0.31947E-03 59556   0.284E-01    0.113E-01
DAV:  15    -0.304580359413E+03    0.11247E-03   -0.11948E-03 53700   0.180E-01    0.489E-02
DAV:  16    -0.304580319241E+03    0.40171E-04   -0.18487E-04 28056   0.928E-02
   4 F= -.30458032E+03 E0= -.30457689E+03  d E =-.403550E+00
 trial-energy change:   -0.403550  1 .order   -0.403278   -0.550948   -0.255609
 step:   0.8572(harm=  0.8572)  dis= 0.09641  next Energy=  -304.690659 (dE=-0.514E+00)
 bond charge predicted
       N       E                     dE             d eps       ncg     rms          rms(c)
DAV:   1    -0.304544514861E+03    0.35845E-01   -0.40349E+01 41280   0.222E+01    0.307E+00
DAV:   2    -0.305089306864E+03   -0.54479E+00   -0.54145E+00 71556   0.114E+01    0.523E+00
DAV:   3    -0.304757037346E+03    0.33227E+00   -0.29038E+00 73080   0.753E+00    0.229E+00
DAV:   4    -0.304784230687E+03   -0.27193E-01   -0.84992E-01 70152   0.446E+00    0.269E+00
DAV:   5    -0.304708069485E+03    0.76161E-01   -0.46733E-01 68940   0.339E+00    0.100E+00
DAV:   6    -0.304710271263E+03   -0.22018E-02   -0.19319E-01 72552   0.202E+00    0.120E+00
DAV:   7    -0.304702867647E+03    0.74036E-02   -0.17204E-01 70992   0.194E+00    0.872E-01
DAV:   8    -0.304696339541E+03    0.65281E-02   -0.62805E-02 73308   0.116E+00    0.434E-01
DAV:   9    -0.304695234731E+03    0.11048E-02   -0.20679E-02 72504   0.631E-01    0.328E-01
DAV:  10    -0.304694923209E+03    0.31152E-03   -0.91742E-03 58752   0.444E-01    0.254E-01
DAV:  11    -0.304694775253E+03    0.14796E-03   -0.37208E-03 62388   0.255E-01    0.165E-01
DAV:  12    -0.304694864718E+03   -0.89465E-04   -0.23027E-03 61548   0.179E-01    0.128E-01
DAV:  13    -0.304694936449E+03   -0.71731E-04   -0.21568E-03 62568   0.211E-01    0.117E-01
DAV:  14    -0.304694856107E+03    0.80343E-04   -0.18504E-03 59016   0.217E-01    0.889E-02
DAV:  15    -0.304694780136E+03    0.75970E-04   -0.70473E-04 47592   0.145E-01
   5 F= -.30469478E+03 E0= -.30469287E+03  d E =-.518011E+00
 curvature:  -0.88 expect dE=-0.134E+00 dE for cont linesearch -0.162E-03
 trial: gam=-0.01776 g(F)=  0.128E+00 g(S)=  0.238E-01 ort = 0.213E-01 (trialstep = 0.539E+00)
 search vector abs. value=  0.152E+00
 bond charge predicted
       N       E                     dE             d eps       ncg     rms          rms(c)
DAV:   1    -0.304739469603E+03   -0.44613E-01   -0.56017E+00 41292   0.907E+00    0.167E+00
DAV:   2    -0.304789636215E+03   -0.50167E-01   -0.77899E-01 70236   0.455E+00    0.167E+00
DAV:   3    -0.304796057691E+03   -0.64215E-02   -0.54497E-01 68112   0.367E+00    0.191E+00
DAV:   4    -0.304769521835E+03    0.26536E-01   -0.29410E-01 66924   0.263E+00    0.903E-01
DAV:   5    -0.304760453177E+03    0.90687E-02   -0.93396E-02 69420   0.143E+00    0.621E-01
DAV:   6    -0.304758847806E+03    0.16054E-02   -0.50044E-02 71844   0.106E+00    0.437E-01
DAV:   7    -0.304758067738E+03    0.78007E-03   -0.24296E-02 74436   0.706E-01    0.376E-01
DAV:   8    -0.304757166336E+03    0.90140E-03   -0.15108E-02 60624   0.540E-01    0.262E-01
DAV:   9    -0.304756688890E+03    0.47745E-03   -0.42139E-03 61020   0.273E-01    0.158E-01
DAV:  10    -0.304756666591E+03    0.22299E-04   -0.14181E-03 54780   0.185E-01    0.135E-01
DAV:  11    -0.304756718436E+03   -0.51845E-04   -0.86997E-04 51912   0.143E-01
   6 F= -.30475672E+03 E0= -.30475450E+03  d E =-.619383E-01
 trial-energy change:   -0.061938  1 .order   -0.063099   -0.081599   -0.044600
 step:   1.1889(harm=  1.1889)  dis= 0.01998  next Energy=  -304.784762 (dE=-0.900E-01)
 bond charge predicted
       N       E                     dE             d eps       ncg     rms          rms(c)
DAV:   1    -0.304756911644E+03   -0.24505E-03   -0.81428E+00 41304   0.109E+01    0.201E+00
DAV:   2    -0.304826908052E+03   -0.69996E-01   -0.11091E+00 70188   0.541E+00    0.197E+00
DAV:   3    -0.304837558866E+03   -0.10651E-01   -0.76598E-01 68508   0.438E+00    0.230E+00
DAV:   4    -0.304798916198E+03    0.38643E-01   -0.42188E-01 67008   0.321E+00    0.106E+00
DAV:   5    -0.304785008180E+03    0.13908E-01   -0.12735E-01 69072   0.167E+00    0.693E-01
DAV:   6    -0.304783763515E+03    0.12447E-02   -0.71538E-02 72012   0.128E+00    0.530E-01
DAV:   7    -0.304781521105E+03    0.22424E-02   -0.31159E-02 75564   0.780E-01    0.347E-01
DAV:   8    -0.304781292995E+03    0.22811E-03   -0.15081E-02 65892   0.556E-01    0.329E-01
DAV:   9    -0.304780565803E+03    0.72719E-03   -0.56870E-03 60768   0.317E-01    0.187E-01
DAV:  10    -0.304780579839E+03   -0.14036E-04   -0.17947E-03 55752   0.199E-01    0.172E-01
DAV:  11    -0.304780658789E+03   -0.78950E-04   -0.14128E-03 59640   0.175E-01    0.130E-01
DAV:  12    -0.304780775771E+03   -0.11698E-03   -0.16638E-03 59592   0.174E-01    0.105E-01
DAV:  13    -0.304780761863E+03    0.13909E-04   -0.19353E-03 58860   0.213E-01    0.100E-01
DAV:  14    -0.304780689032E+03    0.72831E-04   -0.94922E-04 51780   0.161E-01
   7 F= -.30478069E+03 E0= -.30477804E+03  d E =-.859089E-01
 curvature:  -0.60 expect dE=-0.101E+00 dE for cont linesearch -0.460E-04
 trial: gam= 1.13278 g(F)=  0.370E-01 g(S)=  0.132E+00 ort =-0.342E-02 (trialstep = 0.285E+00)
 search vector abs. value=  0.356E+00
 bond charge predicted
       N       E                     dE             d eps       ncg     rms          rms(c)
DAV:   1    -0.304812597819E+03   -0.31836E-01   -0.34328E+00 41280   0.707E+00    0.126E+00
DAV:   2    -0.304838713333E+03   -0.26116E-01   -0.47173E-01 70740   0.329E+00    0.105E+00
DAV:   3    -0.304837798605E+03    0.91473E-03   -0.24822E-01 73260   0.233E+00    0.110E+00
DAV:   4    -0.304826997138E+03    0.10801E-01   -0.11779E-01 70524   0.173E+00    0.684E-01
DAV:   5    -0.304822209409E+03    0.47877E-02   -0.59352E-02 72708   0.104E+00    0.462E-01
DAV:   6    -0.304821771082E+03    0.43833E-03   -0.32872E-02 71508   0.784E-01    0.456E-01
DAV:   7    -0.304820519528E+03    0.12516E-02   -0.19589E-02 67332   0.618E-01    0.269E-01
DAV:   8    -0.304819980618E+03    0.53891E-03   -0.76656E-03 61164   0.377E-01    0.158E-01
DAV:   9    -0.304819890965E+03    0.89653E-04   -0.27927E-03 60372   0.244E-01    0.133E-01
DAV:  10    -0.304819842050E+03    0.48915E-04   -0.12123E-03 54372   0.166E-01    0.912E-02
DAV:  11    -0.304819870966E+03   -0.28916E-04   -0.54236E-04 42816   0.120E-01
   8 F= -.30481987E+03 E0= -.30481697E+03  d E =-.391819E-01
 trial-energy change:   -0.039182  1 .order   -0.039354   -0.047103   -0.031604
 step:   0.8667(harm=  0.8667)  dis= 0.02841  next Energy=  -304.852264 (dE=-0.716E-01)
 bond charge predicted
       N       E                     dE             d eps       ncg     rms          rms(c)
DAV:   1    -0.304817517828E+03    0.23242E-02   -0.14241E+01 41280   0.144E+01    0.259E+00
DAV:   2    -0.304926881675E+03   -0.10936E+00   -0.19779E+00 70884   0.679E+00    0.216E+00
DAV:   3    -0.304921376163E+03    0.55055E-02   -0.10439E+00 73044   0.485E+00    0.226E+00
DAV:   4    -0.304875062421E+03    0.46314E-01   -0.49079E-01 70272   0.357E+00    0.135E+00
DAV:   5    -0.304856210479E+03    0.18852E-01   -0.23995E-01 72816   0.211E+00    0.916E-01
DAV:   6    -0.304854498854E+03    0.17116E-02   -0.13015E-01 71628   0.159E+00    0.899E-01
DAV:   7    -0.304849559792E+03    0.49391E-02   -0.72984E-02 71748   0.119E+00    0.529E-01
DAV:   8    -0.304847747879E+03    0.18119E-02   -0.29385E-02 68844   0.750E-01    0.337E-01
DAV:   9    -0.304847397351E+03    0.35053E-03   -0.11267E-02 64248   0.488E-01    0.279E-01
DAV:  10    -0.304847240924E+03    0.15643E-03   -0.49880E-03 60804   0.321E-01    0.199E-01
DAV:  11    -0.304847452870E+03   -0.21195E-03   -0.29479E-03 60672   0.242E-01    0.162E-01
DAV:  12    -0.304847598963E+03   -0.14609E-03   -0.30416E-03 60336   0.260E-01    0.134E-01
DAV:  13    -0.304847557981E+03    0.40982E-04   -0.23331E-03 68364   0.207E-01    0.717E-02
DAV:  14    -0.304847544929E+03    0.13052E-04   -0.93863E-04 55380   0.142E-01
   9 F= -.30484754E+03 E0= -.30484418E+03  d E =-.668559E-01
 curvature:  -0.93 expect dE=-0.530E-01 dE for cont linesearch -0.502E-03
 trial: gam= 0.35890 g(F)=  0.503E-01 g(S)=  0.652E-02 ort =-0.138E-01 (trialstep = 0.402E+00)
 search vector abs. value=  0.927E-01
 bond charge predicted
       N       E                     dE             d eps       ncg     rms          rms(c)
DAV:   1    -0.304855403474E+03   -0.78455E-02   -0.15512E+00 41280   0.418E+00    0.401E-01
DAV:   2    -0.304875686317E+03   -0.20283E-01   -0.17620E-01 67392   0.228E+00    0.839E-01
DAV:   3    -0.304867787055E+03    0.78993E-02   -0.67895E-02 71052   0.136E+00    0.328E-01
DAV:   4    -0.304867706451E+03    0.80603E-04   -0.14540E-02 67032   0.570E-01    0.303E-01
DAV:   5    -0.304866768433E+03    0.93802E-03   -0.60759E-03 66828   0.371E-01    0.166E-01
DAV:   6    -0.304866695310E+03    0.73123E-04   -0.26128E-03 59268   0.240E-01    0.148E-01
DAV:   7    -0.304866609023E+03    0.86287E-04   -0.20494E-03 65148   0.221E-01    0.118E-01
DAV:   8    -0.304866547378E+03    0.61645E-04   -0.16439E-03 63276   0.194E-01    0.936E-02
DAV:   9    -0.304866428236E+03    0.11914E-03   -0.48676E-04 41208   0.121E-01    0.327E-02
DAV:  10    -0.304866435681E+03   -0.74448E-05   -0.17736E-04 28224   0.788E-02
  10 F= -.30486644E+03 E0= -.30486311E+03  d E =-.188908E-01
 ZBRENT: can't locate minimum, use default step
 trial-energy change:   -0.018891  1 .order   -0.018837   -0.020807   -0.016867
 step:   1.6060(harm=  2.1206)  dis= 0.03850  next Energy=  -304.902492 (dE=-0.549E-01)
 bond charge predicted
       N       E                     dE             d eps       ncg     rms          rms(c)
DAV:   1    -0.304800968448E+03    0.65460E-01   -0.13982E+01 41280   0.126E+01    0.127E+00
DAV:   2    -0.304976861335E+03   -0.17589E+00   -0.15475E+00 67956   0.662E+00    0.235E+00
DAV:   3    -0.304914123919E+03    0.62737E-01   -0.59588E-01 71436   0.395E+00    0.105E+00
DAV:   4    -0.304912805136E+03    0.13188E-02   -0.14164E-01 68244   0.182E+00    0.943E-01
DAV:   5    -0.304903477950E+03    0.93272E-02   -0.58014E-02 71016   0.113E+00    0.487E-01
DAV:   6    -0.304903105299E+03    0.37265E-03   -0.22891E-02 71676   0.709E-01    0.463E-01
DAV:   7    -0.304902244660E+03    0.86064E-03   -0.18807E-02 65832   0.678E-01    0.363E-01
DAV:   8    -0.304901711480E+03    0.53318E-03   -0.15516E-02 68844   0.594E-01    0.292E-01
DAV:   9    -0.304900672388E+03    0.10391E-02   -0.58917E-03 69036   0.359E-01    0.973E-02
DAV:  10    -0.304900773056E+03   -0.10067E-03   -0.22000E-03 61380   0.205E-01    0.129E-01
DAV:  11    -0.304900631856E+03    0.14120E-03   -0.11303E-03 52656   0.165E-01    0.470E-02
DAV:  12    -0.304900606402E+03    0.25455E-04   -0.15674E-04 27144   0.868E-02
  11 F= -.30490061E+03 E0= -.30489741E+03  d E =-.530615E-01
 curvature:  -1.73 expect dE=-0.331E-01 dE for cont linesearch -0.320E-02
 ZBRENT: extrapolating
 opt :   2.1517  next Energy=  -304.904180 (dE=-0.566E-01)
 bond charge predicted
       N       E                     dE             d eps       ncg     rms          rms(c)
DAV:   1    -0.304884154725E+03    0.16477E-01   -0.28768E+00 41280   0.568E+00    0.548E-01
DAV:   2    -0.304921338783E+03   -0.37184E-01   -0.32294E-01 67932   0.307E+00    0.110E+00
DAV:   3    -0.304907003290E+03    0.14335E-01   -0.12292E-01 71508   0.182E+00    0.444E-01
DAV:   4    -0.304906844978E+03    0.15831E-03   -0.26881E-02 68064   0.799E-01    0.413E-01
DAV:   5    -0.304905101253E+03    0.17437E-02   -0.11187E-02 69156   0.507E-01    0.217E-01
DAV:   6    -0.304905013465E+03    0.87787E-04   -0.47079E-03 63132   0.323E-01    0.205E-01
DAV:   7    -0.304904877452E+03    0.13601E-03   -0.41210E-03 66696   0.314E-01    0.169E-01
DAV:   8    -0.304904731067E+03    0.14639E-03   -0.33138E-03 66456   0.269E-01    0.129E-01
DAV:   9    -0.304904521200E+03    0.20987E-03   -0.10932E-03 52236   0.163E-01    0.470E-02
DAV:  10    -0.304904520630E+03    0.56972E-06   -0.30953E-04 35700   0.101E-01
  12 F= -.30490452E+03 E0= -.30490141E+03  d E =-.569757E-01
 curvature:  -1.93 expect dE=-0.388E-01 dE for cont linesearch -0.338E-06
 trial: gam= 0.14291 g(F)=  0.170E-01 g(S)=  0.312E-02 ort =-0.127E-03 (trialstep = 0.752E+00)
 search vector abs. value=  0.219E-01
 bond charge predicted
       N       E                     dE             d eps       ncg     rms          rms(c)
DAV:   1    -0.304912904853E+03   -0.83837E-02   -0.14346E+00 41292   0.434E+00    0.760E-01
DAV:   2    -0.304925198871E+03   -0.12294E-01   -0.18702E-01 70548   0.205E+00    0.835E-01
DAV:   3    -0.304922614791E+03    0.25841E-02   -0.12749E-01 70440   0.168E+00    0.772E-01
DAV:   4    -0.304918076023E+03    0.45388E-02   -0.52430E-02 64020   0.113E+00    0.401E-01
DAV:   5    -0.304916382413E+03    0.16936E-02   -0.20034E-02 68976   0.625E-01    0.278E-01
DAV:   6    -0.304916064035E+03    0.31838E-03   -0.11024E-02 67080   0.529E-01    0.244E-01
DAV:   7    -0.304915753165E+03    0.31087E-03   -0.65797E-03 65136   0.353E-01    0.163E-01
DAV:   8    -0.304915578003E+03    0.17516E-03   -0.25181E-03 62028   0.222E-01    0.113E-01
DAV:   9    -0.304915498586E+03    0.79417E-04   -0.10320E-03 51084   0.154E-01    0.771E-02
DAV:  10    -0.304915471544E+03    0.27042E-04   -0.26893E-04 34920   0.976E-02
  13 F= -.30491547E+03 E0= -.30491243E+03  d E =-.109509E-01
 trial-energy change:   -0.010951  1 .order   -0.011289   -0.015087   -0.007491
 step:   1.4927(harm=  1.4927)  dis= 0.01071  next Energy=  -304.919503 (dE=-0.150E-01)
 bond charge predicted
       N       E                     dE             d eps       ncg     rms          rms(c)
DAV:   1    -0.304916176025E+03   -0.67744E-03   -0.13935E+00 41292   0.428E+00    0.733E-01
DAV:   2    -0.304928078125E+03   -0.11902E-01   -0.17792E-01 70428   0.204E+00    0.835E-01
DAV:   3    -0.304925227878E+03    0.28502E-02   -0.12089E-01 70200   0.166E+00    0.745E-01
DAV:   4    -0.304921051404E+03    0.41765E-02   -0.48962E-02 64284   0.109E+00    0.396E-01
DAV:   5    -0.304919651797E+03    0.13996E-02   -0.20621E-02 70752   0.634E-01    0.306E-01
DAV:   6    -0.304919122295E+03    0.52950E-03   -0.11366E-02 65004   0.525E-01    0.232E-01
DAV:   7    -0.304918835353E+03    0.28694E-03   -0.60207E-03 67320   0.326E-01    0.159E-01
DAV:   8    -0.304918688951E+03    0.14640E-03   -0.22870E-03 61236   0.219E-01    0.115E-01
DAV:   9    -0.304918620450E+03    0.68500E-04   -0.96040E-04 50736   0.151E-01
  14 F= -.30491862E+03 E0= -.30491566E+03  d E =-.140998E-01
 curvature:  -0.82 expect dE=-0.212E-01 dE for cont linesearch -0.342E-05
 trial: gam= 1.31966 g(F)=  0.468E-02 g(S)=  0.213E-01 ort =-0.303E-03 (trialstep = 0.311E+00)
 search vector abs. value=  0.634E-01
 bond charge predicted
       N       E                     dE             d eps       ncg     rms          rms(c)
DAV:   1    -0.304923949554E+03   -0.52606E-02   -0.67789E-01 41292   0.305E+00    0.606E-01
DAV:   2    -0.304929025864E+03   -0.50763E-02   -0.93561E-02 71280   0.155E+00    0.582E-01
DAV:   3    -0.304929092948E+03   -0.67084E-04   -0.64835E-02 66720   0.127E+00    0.594E-01
DAV:   4    -0.304926312131E+03    0.27808E-02   -0.32303E-02 63264   0.880E-01    0.303E-01
DAV:   5    -0.304925115809E+03    0.11963E-02   -0.11152E-02 66876   0.450E-01    0.172E-01
DAV:   6    -0.304925165793E+03   -0.49985E-04   -0.59919E-03 69204   0.351E-01    0.188E-01
DAV:   7    -0.304924941005E+03    0.22479E-03   -0.41875E-03 60480   0.292E-01    0.121E-01
DAV:   8    -0.304924855133E+03    0.85872E-04   -0.15888E-03 57396   0.179E-01    0.893E-02
DAV:   9    -0.304924774335E+03    0.80799E-04   -0.49337E-04 39264   0.114E-01
  15 F= -.30492477E+03 E0= -.30492186E+03  d E =-.615388E-02
 trial-energy change:   -0.006154  1 .order   -0.006143   -0.007974   -0.004311
 step:   0.6777(harm=  0.6777)  dis= 0.00917  next Energy=  -304.927300 (dE=-0.868E-02)
 bond charge predicted
       N       E                     dE             d eps       ncg     rms          rms(c)
DAV:   1    -0.304925792175E+03   -0.93704E-03   -0.94127E-01 41292   0.360E+00    0.679E-01
DAV:   2    -0.304932780657E+03   -0.69885E-02   -0.12320E-01 70308   0.180E+00    0.666E-01
DAV:   3    -0.304932795869E+03   -0.15212E-04   -0.83880E-02 66612   0.147E+00    0.672E-01
DAV:   4    -0.304929081199E+03    0.37147E-02   -0.39478E-02 64788   0.995E-01    0.320E-01
DAV:   5    -0.304927773560E+03    0.13076E-02   -0.13474E-02 72360   0.501E-01    0.201E-01
DAV:   6    -0.304927743029E+03    0.30531E-04   -0.70663E-03 64116   0.383E-01    0.204E-01
DAV:   7    -0.304927494605E+03    0.24842E-03   -0.45747E-03 60564   0.306E-01    0.129E-01
DAV:   8    -0.304927412964E+03    0.81641E-04   -0.15920E-03 58164   0.180E-01    0.965E-02
DAV:   9    -0.304927364944E+03    0.48020E-04   -0.61019E-04 42432   0.120E-01
  16 F= -.30492736E+03 E0= -.30492451E+03  d E =-.874449E-02
 curvature:  -0.84 expect dE=-0.570E-02 dE for cont linesearch -0.951E-05
 trial: gam= 0.17628 g(F)=  0.671E-02 g(S)=  0.763E-04 ort = 0.848E-03 (trialstep = 0.385E+00)
 search vector abs. value=  0.906E-02
 bond charge predicted
       N       E                     dE             d eps       ncg     rms          rms(c)
DAV:   1    -0.304929089327E+03   -0.16764E-02   -0.13838E-01 42732   0.125E+00    0.118E-01
DAV:   2    -0.304930075803E+03   -0.98648E-03   -0.10906E-02 66936   0.469E-01    0.132E-01
DAV:   3    -0.304930014008E+03    0.61795E-04   -0.30269E-03 67584   0.293E-01    0.117E-01
DAV:   4    -0.304929917536E+03    0.96472E-04   -0.89393E-04 49164   0.162E-01
  17 F= -.30492992E+03 E0= -.30492703E+03  d E =-.255259E-02
 ZBRENT: can't locate minimum, use default step
 trial-energy change:   -0.002553  1 .order   -0.002579   -0.002668   -0.002490
 step:   1.5383(harm=  5.7652)  dis= 0.00813  next Energy=  -304.947363 (dE=-0.200E-01)
 bond charge predicted
       N       E                     dE             d eps       ncg     rms          rms(c)
DAV:   1    -0.304928870448E+03    0.11436E-02   -0.12401E+00 42552   0.373E+00    0.333E-01
DAV:   2    -0.304937950998E+03   -0.90806E-02   -0.10271E-01 68220   0.146E+00    0.436E-01
DAV:   3    -0.304936621328E+03    0.13297E-02   -0.28558E-02 70164   0.845E-01    0.322E-01
DAV:   4    -0.304935900615E+03    0.72071E-03   -0.78419E-03 64824   0.445E-01    0.184E-01
DAV:   5    -0.304935710600E+03    0.19002E-03   -0.37411E-03 63540   0.291E-01    0.170E-01
DAV:   6    -0.304935608855E+03    0.10174E-03   -0.29566E-03 60348   0.267E-01    0.146E-01
DAV:   7    -0.304935601886E+03    0.69693E-05   -0.29599E-03 64920   0.249E-01    0.142E-01
DAV:   8    -0.304935420113E+03    0.18177E-03   -0.17430E-03 59124   0.210E-01    0.689E-02
DAV:   9    -0.304935355448E+03    0.64665E-04   -0.34117E-04 38040   0.101E-01
  18 F= -.30493536E+03 E0= -.30493235E+03  d E =-.799050E-02
 curvature:  -1.44 expect dE=-0.553E-02 dE for cont linesearch -0.200E-02
 ZBRENT: increasing intervall
 opt :   3.8459  next Energy=  -304.936781 (dE=-0.942E-02)
 bond charge predicted
       N       E                     dE             d eps       ncg     rms          rms(c)
DAV:   1    -0.304909751125E+03    0.25669E-01   -0.49622E+00 42156   0.748E+00    0.672E-01
DAV:   2    -0.304950223248E+03   -0.40472E-01   -0.43919E-01 68292   0.312E+00    0.971E-01
DAV:   3    -0.304942673454E+03    0.75498E-02   -0.12902E-01 69264   0.186E+00    0.621E-01
DAV:   4    -0.304940007150E+03    0.26663E-02   -0.32340E-02 66768   0.922E-01    0.396E-01
DAV:   5    -0.304939114872E+03    0.89228E-03   -0.17171E-02 66108   0.591E-01    0.327E-01
DAV:   6    -0.304938702554E+03    0.41232E-03   -0.10507E-02 67068   0.464E-01    0.272E-01
DAV:   7    -0.304938635132E+03    0.67422E-04   -0.75536E-03 68748   0.408E-01    0.242E-01
DAV:   8    -0.304938040684E+03    0.59445E-03   -0.57820E-03 67308   0.381E-01    0.135E-01
DAV:   9    -0.304937842457E+03    0.19823E-03   -0.17597E-03 61380   0.182E-01    0.574E-02
DAV:  10    -0.304937822139E+03    0.20317E-04   -0.37258E-04 38472   0.872E-02
  19 F= -.30493782E+03 E0= -.30493462E+03  d E =-.104572E-01
 curvature:  -1.03 expect dE=-0.120E-01 dE for cont linesearch -0.200E-03
 trial: gam= 0.00000 g(F)=  0.632E-02 g(S)=  0.540E-02 ort =-0.133E-02 (trialstep = 0.832E+00)
 search vector abs. value=  0.117E-01
 bond charge predicted
       N       E                     dE             d eps       ncg     rms          rms(c)
DAV:   1    -0.304954575070E+03   -0.16733E-01   -0.11622E+00 57060   0.487E+00    0.118E+00
DAV:   2    -0.304964931663E+03   -0.10357E-01   -0.30333E-01 75744   0.245E+00    0.119E+00
DAV:   3    -0.304955118343E+03    0.98133E-02   -0.27968E-01 73344   0.207E+00    0.106E+00
DAV:   4    -0.304948565397E+03    0.65529E-02   -0.12245E-01 66024   0.169E+00    0.738E-01
DAV:   5    -0.304944773197E+03    0.37922E-02   -0.68653E-02 70992   0.111E+00    0.581E-01
DAV:   6    -0.304942104445E+03    0.26688E-02   -0.37355E-02 68688   0.832E-01    0.328E-01
DAV:   7    -0.304941296216E+03    0.80823E-03   -0.12138E-02 75600   0.500E-01    0.215E-01
DAV:   8    -0.304941061662E+03    0.23455E-03   -0.64564E-03 63396   0.370E-01    0.163E-01
DAV:   9    -0.304940919015E+03    0.14265E-03   -0.21235E-03 58668   0.228E-01    0.107E-01
DAV:  10    -0.304940861287E+03    0.57728E-04   -0.45829E-04 41340   0.113E-01
  20 F= -.30494086E+03 E0= -.30493756E+03  d E =-.303915E-02
 trial-energy change:   -0.003039  1 .order   -0.003382   -0.009754    0.002990
 step:   0.6366(harm=  0.6366)  dis= 0.00408  next Energy=  -304.941555 (dE=-0.373E-02)
 bond charge predicted
       N       E                     dE             d eps       ncg     rms          rms(c)
DAV:   1    -0.304942186106E+03   -0.12671E-02   -0.63616E-02 57324   0.114E+00    0.301E-01
DAV:   2    -0.304942907845E+03   -0.72174E-03   -0.19468E-02 76272   0.592E-01    0.295E-01
DAV:   3    -0.304942297050E+03    0.61080E-03   -0.17255E-02 72492   0.518E-01    0.276E-01
DAV:   4    -0.304941850533E+03    0.44652E-03   -0.76313E-03 57972   0.418E-01    0.192E-01
DAV:   5    -0.304941638202E+03    0.21233E-03   -0.44468E-03 59400   0.287E-01    0.156E-01
DAV:   6    -0.304941457003E+03    0.18120E-03   -0.25443E-03 57552   0.230E-01    0.889E-02
DAV:   7    -0.304941386958E+03    0.70046E-04   -0.72368E-04 43872   0.150E-01
  21 F= -.30494139E+03 E0= -.30493813E+03  d E =-.356482E-02
 curvature:  -0.32 expect dE=-0.195E-02 dE for cont linesearch -0.262E-04
 trial: gam= 0.60679 g(F)=  0.230E-02 g(S)=  0.384E-02 ort =-0.983E-03 (trialstep = 0.793E+00)
 search vector abs. value=  0.926E-02
 bond charge predicted
       N       E                     dE             d eps       ncg     rms          rms(c)
DAV:   1    -0.304940934196E+03    0.52281E-03   -0.64020E-01 41484   0.267E+00    0.320E-01
DAV:   2    -0.304947121628E+03   -0.61874E-02   -0.66740E-02 69492   0.134E+00    0.538E-01
DAV:   3    -0.304944703880E+03    0.24177E-02   -0.30042E-02 68304   0.860E-01    0.276E-01
DAV:   4    -0.304944493906E+03    0.20997E-03   -0.91232E-03 63948   0.433E-01    0.223E-01
DAV:   5    -0.304944020067E+03    0.47384E-03   -0.48270E-03 62868   0.306E-01    0.144E-01
DAV:   6    -0.304943915282E+03    0.10478E-03   -0.27997E-03 59880   0.238E-01    0.115E-01
DAV:   7    -0.304943886551E+03    0.28731E-04   -0.19495E-03 59316   0.215E-01    0.980E-02
DAV:   8    -0.304943805638E+03    0.80913E-04   -0.95767E-04 51972   0.157E-01
  22 F= -.30494381E+03 E0= -.30494045E+03  d E =-.241868E-02
 trial-energy change:   -0.002419  1 .order   -0.002598   -0.004389   -0.000807
 step:   0.9715(harm=  0.9715)  dis= 0.00577  next Energy=  -304.944076 (dE=-0.269E-02)
 bond charge predicted
       N       E                     dE             d eps       ncg     rms          rms(c)
DAV:   1    -0.304943623284E+03    0.26327E-03   -0.32202E-02 41964   0.604E-01    0.736E-02
DAV:   2    -0.304943984982E+03   -0.36170E-03   -0.36087E-03 68916   0.315E-01    0.133E-01
DAV:   3    -0.304943835055E+03    0.14993E-03   -0.15562E-03 55488   0.204E-01    0.557E-02
DAV:   4    -0.304943821962E+03    0.13093E-04   -0.25086E-04 33576   0.935E-02
  23 F= -.30494382E+03 E0= -.30494045E+03  d E =-.243500E-02
 curvature:  -0.81 expect dE=-0.180E-02 dE for cont linesearch -0.555E-05
 trial: gam= 0.21638 g(F)=  0.203E-02 g(S)=  0.185E-03 ort =-0.252E-03 (trialstep = 0.829E+00)
 search vector abs. value=  0.254E-02
 bond charge predicted
       N       E                     dE             d eps       ncg     rms          rms(c)
DAV:   1    -0.304944721128E+03   -0.88607E-03   -0.17291E-01 41280   0.157E+00    0.290E-01
DAV:   2    -0.304946360827E+03   -0.16397E-02   -0.24705E-02 70788   0.806E-01    0.310E-01
DAV:   3    -0.304946133927E+03    0.22690E-03   -0.16921E-02 69612   0.658E-01    0.310E-01
DAV:   4    -0.304945431912E+03    0.70201E-03   -0.79256E-03 59964   0.434E-01    0.159E-01
DAV:   5    -0.304945284292E+03    0.14762E-03   -0.35963E-03 61092   0.271E-01    0.155E-01
DAV:   6    -0.304945082949E+03    0.20134E-03   -0.21681E-03 56556   0.225E-01    0.764E-02
DAV:   7    -0.304945056558E+03    0.26391E-04   -0.71553E-04 47172   0.135E-01
  24 F= -.30494506E+03 E0= -.30494168E+03  d E =-.123460E-02
 trial-energy change:   -0.001235  1 .order   -0.001336   -0.001787   -0.000886
 step:   1.6438(harm=  1.6438)  dis= 0.00452  next Energy=  -304.945594 (dE=-0.177E-02)
 bond charge predicted
       N       E                     dE             d eps       ncg     rms          rms(c)
DAV:   1    -0.304944910593E+03    0.17236E-03   -0.16600E-01 41280   0.154E+00    0.272E-01
DAV:   2    -0.304946650916E+03   -0.17403E-02   -0.23925E-02 70536   0.787E-01    0.325E-01
DAV:   3    -0.304946250747E+03    0.40017E-03   -0.16250E-02 67644   0.618E-01    0.291E-01
DAV:   4    -0.304945615976E+03    0.63477E-03   -0.68767E-03 58296   0.389E-01    0.136E-01
DAV:   5    -0.304945426554E+03    0.18942E-03   -0.25861E-03 62040   0.210E-01    0.106E-01
DAV:   6    -0.304945408694E+03    0.17860E-04   -0.16059E-03 56220   0.192E-01    0.967E-02
DAV:   7    -0.304945332423E+03    0.76271E-04   -0.50507E-04 39348   0.130E-01
  25 F= -.30494533E+03 E0= -.30494198E+03  d E =-.151046E-02
 curvature:  -0.97 expect dE=-0.418E-02 dE for cont linesearch -0.133E-05
 trial: gam= 1.91375 g(F)=  0.101E-02 g(S)=  0.332E-02 ort = 0.591E-04 (trialstep = 0.182E+00)
 search vector abs. value=  0.138E-01
 bond charge predicted
       N       E                     dE             d eps       ncg     rms          rms(c)
DAV:   1    -0.304945827539E+03   -0.41884E-03   -0.46350E-02 41400   0.784E-01    0.131E-01
DAV:   2    -0.304946345098E+03   -0.51756E-03   -0.68037E-03 70536   0.404E-01    0.149E-01
DAV:   3    -0.304946242670E+03    0.10243E-03   -0.31691E-03 65640   0.291E-01    0.117E-01
DAV:   4    -0.304946116059E+03    0.12661E-03   -0.95363E-04 50016   0.165E-01    0.613E-02
DAV:   5    -0.304946099661E+03    0.16399E-04   -0.54553E-04 43188   0.117E-01
  26 F= -.30494610E+03 E0= -.30494272E+03  d E =-.767238E-03
 ZBRENT: can't locate minimum, use default step
 trial-energy change:   -0.000767  1 .order   -0.000738   -0.000807   -0.000669
 step:   0.7266(harm=  1.0642)  dis= 0.00485  next Energy=  -304.947696 (dE=-0.236E-02)
 bond charge predicted
       N       E                     dE             d eps       ncg     rms          rms(c)
DAV:   1    -0.304945240874E+03    0.87519E-03   -0.41408E-01 41280   0.232E+00    0.334E-01
DAV:   2    -0.304948695776E+03   -0.34549E-02   -0.48586E-02 68268   0.104E+00    0.356E-01
DAV:   3    -0.304949046888E+03   -0.35111E-03   -0.24368E-02 67344   0.747E-01    0.401E-01
DAV:   4    -0.304947820229E+03    0.12267E-02   -0.11661E-02 59352   0.491E-01    0.193E-01
DAV:   5    -0.304947544115E+03    0.27611E-03   -0.48230E-03 62832   0.332E-01    0.154E-01
DAV:   6    -0.304947380862E+03    0.16325E-03   -0.25673E-03 59952   0.248E-01    0.916E-02
DAV:   7    -0.304947321251E+03    0.59611E-04   -0.11857E-03 58116   0.153E-01    0.670E-02
DAV:   8    -0.304947286830E+03    0.34421E-04   -0.51491E-04 42180   0.122E-01
  27 F= -.30494729E+03 E0= -.30494392E+03  d E =-.195441E-02
 curvature:  -1.42 expect dE=-0.237E-02 dE for cont linesearch -0.177E-03
 trial: gam= 0.07787 g(F)=  0.158E-02 g(S)=  0.945E-04 ort = 0.131E-02 (trialstep = 0.291E+00)
 search vector abs. value=  0.196E-02
 bond charge predicted
       N       E                     dE             d eps       ncg     rms          rms(c)
DAV:   1    -0.304947645782E+03   -0.32453E-03   -0.17770E-02 41916   0.472E-01    0.665E-02
DAV:   2    -0.304947821100E+03   -0.17532E-03   -0.21224E-03 66936   0.227E-01    0.847E-02
DAV:   3    -0.304947761764E+03    0.59336E-04   -0.88039E-04 50964   0.145E-01
  28 F= -.30494776E+03 E0= -.30494437E+03  d E =-.474934E-03
 ZBRENT: can't locate minimum, use default step
 trial-energy change:   -0.000475  1 .order   -0.000468   -0.000517   -0.000418
 step:   1.1626(harm=  1.5248)  dis= 0.00219  next Energy=  -304.948642 (dE=-0.136E-02)
 bond charge predicted
       N       E                     dE             d eps       ncg     rms          rms(c)
DAV:   1    -0.304947982015E+03   -0.16091E-03   -0.15999E-01 41280   0.139E+00    0.216E-01
DAV:   2    -0.304949465945E+03   -0.14839E-02   -0.20055E-02 71772   0.713E-01    0.263E-01
DAV:   3    -0.304948940156E+03    0.52579E-03   -0.98727E-03 71124   0.473E-01    0.185E-01
DAV:   4    -0.304948788758E+03    0.15140E-03   -0.46360E-03 60696   0.310E-01    0.148E-01
DAV:   5    -0.304948617974E+03    0.17078E-03   -0.22274E-03 57156   0.209E-01    0.106E-01
DAV:   6    -0.304948541797E+03    0.76177E-04   -0.12507E-03 53580   0.164E-01    0.698E-02
DAV:   7    -0.304948518987E+03    0.22810E-04   -0.55416E-04 42792   0.130E-01
  29 F= -.30494852E+03 E0= -.30494510E+03  d E =-.123216E-02
 curvature:  -0.77 expect dE=-0.103E-02 dE for cont linesearch -0.100E-03
 trial: gam= 0.00000 g(F)=  0.579E-03 g(S)=  0.761E-03 ort = 0.506E-03 (trialstep = 0.465E+00)
 search vector abs. value=  0.134E-02
 bond charge predicted
       N       E                     dE             d eps       ncg     rms          rms(c)
DAV:   1    -0.304949622513E+03   -0.10807E-02   -0.39538E-02 57804   0.956E-01    0.252E-01
DAV:   2    -0.304949818805E+03   -0.19629E-03   -0.11370E-02 76308   0.470E-01    0.225E-01
DAV:   3    -0.304949627760E+03    0.19105E-03   -0.10607E-02 69444   0.452E-01    0.236E-01
DAV:   4    -0.304949236151E+03    0.39161E-03   -0.52882E-03 59040   0.370E-01    0.140E-01
DAV:   5    -0.304949008992E+03    0.22716E-03   -0.19852E-03 62004   0.190E-01    0.750E-02
DAV:   6    -0.304948982199E+03    0.26793E-04   -0.11748E-03 54780   0.154E-01    0.777E-02
DAV:   7    -0.304948940281E+03    0.41918E-04   -0.70330E-04 45900   0.140E-01
  30 F= -.30494894E+03 E0= -.30494550E+03  d E =-.421294E-03
 trial-energy change:   -0.000421  1 .order   -0.000410   -0.000623   -0.000197
 step:   0.6793(harm=  0.6793)  dis= 0.00087  next Energy=  -304.948974 (dE=-0.455E-03)
 bond charge predicted
       N       E                     dE             d eps       ncg     rms          rms(c)
DAV:   1    -0.304949086695E+03   -0.10450E-03   -0.80672E-03 58188   0.439E-01    0.106E-01
DAV:   2    -0.304949380512E+03   -0.29382E-03   -0.34845E-03 72060   0.281E-01    0.178E-01
DAV:   3    -0.304949082702E+03    0.29781E-03   -0.31740E-03 59976   0.249E-01    0.994E-02
DAV:   4    -0.304949026171E+03    0.56531E-04   -0.10771E-03 52536   0.141E-01    0.594E-02
DAV:   5    -0.304949013226E+03    0.12945E-04   -0.43841E-04 37548   0.117E-01
  31 F= -.30494901E+03 E0= -.30494555E+03  d E =-.494239E-03
 curvature:  -0.34 expect dE=-0.217E-03 dE for cont linesearch -0.900E-05
 trial: gam= 0.33535 g(F)=  0.501E-03 g(S)=  0.137E-03 ort = 0.188E-03 (trialstep = 0.508E+00)
 search vector abs. value=  0.915E-03
 reached required accuracy - stopping structural energy minimisation
 writing wavefunctions
VASP is done!
