<?xml version="1.0" encoding="ISO-8859-1"?>
<modeling>
 <generator>
  <i name="program" type="string">vasp </i>
  <i name="version" type="string">5.4.4.18Apr17-6-g9f103f2a35  </i>
  <i name="subversion" type="string">(build Aug 09 2018 16:20:53) complex            parallel </i>
  <i name="platform" type="string">LinuxIFC </i>
  <i name="date" type="string">2020 04 29 </i>
  <i name="time" type="string">15:11:06 </i>
 </generator>
 <incar>
  <i type="string" name="SYSTEM"> Nb - Mo - Ta - Ti - V SQS</i>
  <i type="string" name="PREC">normal</i>
  <i type="int" name="ICHARG">     0</i>
  <i type="int" name="IBRION">     2</i>
  <i type="int" name="NSW">    50</i>
  <i type="int" name="ISIF">     3</i>
  <i name="ENCUT">    600.00000000</i>
  <i type="string" name="LREAL"> Auto</i>
  <i type="int" name="ISMEAR">     1</i>
  <i name="SIGMA">      0.20000000</i>
  <v type="int" name="KPOINT_BSE">    -1     0     0     0</v>
  <i type="string" name="GGA"> PS</i>
 </incar>
 <structure name="primitive_cell" >
  <crystal>
   <varray name="basis" >
    <v>      -3.16000000      -3.16000000      -3.16000000 </v>
    <v>       1.58000000       1.58000000      -7.90000000 </v>
    <v>       7.90000000      -7.90000000      -1.58000000 </v>
   </varray>
   <i name="volume">    473.31744000 </i>
   <varray name="rec_basis" >
    <v>      -0.13713080      -0.12658228      -0.05274262 </v>
    <v>       0.04219409       0.06329114      -0.10548523 </v>
    <v>       0.06329114      -0.06329114       0.00000000 </v>
   </varray>
  </crystal>
  <varray name="positions" >
   <v>      -0.03333333      -0.06666667       0.40000000 </v>
   <v>       0.30000000      -0.40000000       0.40000000 </v>
   <v>      -0.10000000      -0.20000000       0.20000000 </v>
   <v>       0.06666667       0.13333333       0.20000000 </v>
   <v>       0.46666667      -0.06666667       0.40000000 </v>
   <v>      -0.13333333      -0.26666667      -0.40000000 </v>
   <v>       0.03333333       0.06666667      -0.40000000 </v>
   <v>      -0.36666667       0.26666667       0.40000000 </v>
   <v>       0.40000000      -0.20000000       0.20000000 </v>
   <v>      -0.20000000      -0.40000000       0.40000000 </v>
   <v>      -0.43333333       0.13333333       0.20000000 </v>
   <v>       0.36666667      -0.26666667      -0.40000000 </v>
   <v>       0.13333333       0.26666667       0.40000000 </v>
   <v>      -0.46666667       0.06666667      -0.40000000 </v>
   <v>       0.23333333       0.46666667       0.20000000 </v>
   <v>       0.20000000       0.40000000      -0.40000000 </v>
   <v>       0.00000000       0.00000000       0.00000000 </v>
   <v>      -0.30000000       0.40000000      -0.40000000 </v>
   <v>      -0.26666667       0.46666667       0.20000000 </v>
   <v>       0.33333333      -0.33333333       0.00000000 </v>
   <v>       0.43333333      -0.13333333      -0.20000000 </v>
   <v>      -0.50000000       0.00000000       0.00000000 </v>
   <v>       0.26666667      -0.46666667      -0.20000000 </v>
   <v>      -0.33333333       0.33333333       0.00000000 </v>
   <v>      -0.40000000       0.20000000      -0.20000000 </v>
   <v>      -0.16666667      -0.33333333       0.00000000 </v>
   <v>      -0.23333333      -0.46666667      -0.20000000 </v>
   <v>       0.16666667       0.33333333       0.00000000 </v>
   <v>       0.10000000       0.20000000      -0.20000000 </v>
  </varray>
 </structure>
 <varray name="primitive_index" >
  <v type="int" >        1 </v>
  <v type="int" >       17 </v>
  <v type="int" >        7 </v>
  <v type="int" >       23 </v>
  <v type="int" >       19 </v>
  <v type="int" >       18 </v>
  <v type="int" >        6 </v>
  <v type="int" >        2 </v>
  <v type="int" >       15 </v>
  <v type="int" >        8 </v>
  <v type="int" >       14 </v>
  <v type="int" >       11 </v>
  <v type="int" >       12 </v>
  <v type="int" >       27 </v>
  <v type="int" >       29 </v>
  <v type="int" >       22 </v>
  <v type="int" >        4 </v>
  <v type="int" >       25 </v>
  <v type="int" >        9 </v>
  <v type="int" >       28 </v>
  <v type="int" >       16 </v>
  <v type="int" >        3 </v>
  <v type="int" >       21 </v>
  <v type="int" >       10 </v>
  <v type="int" >       26 </v>
  <v type="int" >       13 </v>
  <v type="int" >       24 </v>
  <v type="int" >       20 </v>
  <v type="int" >        5 </v>
 </varray>
 <kpoints>
  <generation param="Gamma">
   <v type="int" name="divisions">       7        7        7 </v>
   <v name="usershift">      0.00000000       0.00000000       0.00000000 </v>
   <v name="genvec1">      0.14285714       0.00000000       0.00000000 </v>
   <v name="genvec2">     -0.00000000       0.14285714       0.00000000 </v>
   <v name="genvec3">      0.00000000       0.00000000       0.14285714 </v>
   <v name="shift">      0.00000000       0.00000000       0.00000000 </v>
  </generation>
  <varray name="kpointlist" >
   <v>       0.00000000       0.00000000       0.00000000 </v>
   <v>       0.14285714       0.00000000      -0.00000000 </v>
   <v>       0.28571429       0.00000000       0.00000000 </v>
   <v>       0.42857143       0.00000000      -0.00000000 </v>
   <v>      -0.00000000       0.14285714       0.00000000 </v>
   <v>       0.14285714       0.14285714      -0.00000000 </v>
   <v>       0.28571429       0.14285714       0.00000000 </v>
   <v>       0.42857143       0.14285714      -0.00000000 </v>
   <v>      -0.42857143       0.14285714       0.00000000 </v>
   <v>      -0.28571429       0.14285714       0.00000000 </v>
   <v>      -0.14285714       0.14285714       0.00000000 </v>
   <v>       0.00000000       0.28571429      -0.00000000 </v>
   <v>       0.14285714       0.28571429      -0.00000000 </v>
   <v>       0.28571429       0.28571429      -0.00000000 </v>
   <v>       0.42857143       0.28571429      -0.00000000 </v>
   <v>      -0.42857143       0.28571429      -0.00000000 </v>
   <v>      -0.28571429       0.28571429      -0.00000000 </v>
   <v>      -0.14285714       0.28571429      -0.00000000 </v>
   <v>      -0.00000000       0.42857143      -0.00000000 </v>
   <v>       0.14285714       0.42857143       0.00000000 </v>
   <v>       0.28571429       0.42857143       0.00000000 </v>
   <v>       0.42857143       0.42857143      -0.00000000 </v>
   <v>      -0.42857143       0.42857143       0.00000000 </v>
   <v>      -0.28571429       0.42857143      -0.00000000 </v>
   <v>      -0.14285714       0.42857143      -0.00000000 </v>
   <v>       0.00000000       0.00000000       0.14285714 </v>
   <v>       0.14285714       0.00000000       0.14285714 </v>
   <v>       0.28571429       0.00000000       0.14285714 </v>
   <v>       0.42857143       0.00000000       0.14285714 </v>
   <v>      -0.42857143       0.00000000       0.14285714 </v>
   <v>      -0.28571429       0.00000000       0.14285714 </v>
   <v>      -0.14285714      -0.00000000       0.14285714 </v>
   <v>      -0.00000000       0.14285714       0.14285714 </v>
   <v>       0.14285714       0.14285714       0.14285714 </v>
   <v>       0.28571429       0.14285714       0.14285714 </v>
   <v>       0.42857143       0.14285714       0.14285714 </v>
   <v>      -0.42857143       0.14285714       0.14285714 </v>
   <v>      -0.28571429       0.14285714       0.14285714 </v>
   <v>      -0.14285714       0.14285714       0.14285714 </v>
   <v>      -0.00000000       0.28571429       0.14285714 </v>
   <v>       0.14285714       0.28571429       0.14285714 </v>
   <v>       0.28571429       0.28571429       0.14285714 </v>
   <v>       0.42857143       0.28571429       0.14285714 </v>
   <v>      -0.42857143       0.28571429       0.14285714 </v>
   <v>      -0.28571429       0.28571429       0.14285714 </v>
   <v>      -0.14285714       0.28571429       0.14285714 </v>
   <v>       0.00000000       0.42857143       0.14285714 </v>
   <v>       0.14285714       0.42857143       0.14285714 </v>
   <v>       0.28571429       0.42857143       0.14285714 </v>
   <v>       0.42857143       0.42857143       0.14285714 </v>
   <v>      -0.42857143       0.42857143       0.14285714 </v>
   <v>      -0.28571429       0.42857143       0.14285714 </v>
   <v>      -0.14285714       0.42857143       0.14285714 </v>
   <v>       0.00000000      -0.42857143       0.14285714 </v>
   <v>       0.14285714      -0.42857143       0.14285714 </v>
   <v>       0.28571429      -0.42857143       0.14285714 </v>
   <v>       0.42857143      -0.42857143       0.14285714 </v>
   <v>      -0.42857143      -0.42857143       0.14285714 </v>
   <v>      -0.28571429      -0.42857143       0.14285714 </v>
   <v>      -0.14285714      -0.42857143       0.14285714 </v>
   <v>       0.00000000      -0.28571429       0.14285714 </v>
   <v>       0.14285714      -0.28571429       0.14285714 </v>
   <v>       0.28571429      -0.28571429       0.14285714 </v>
   <v>       0.42857143      -0.28571429       0.14285714 </v>
   <v>      -0.42857143      -0.28571429       0.14285714 </v>
   <v>      -0.28571429      -0.28571429       0.14285714 </v>
   <v>      -0.14285714      -0.28571429       0.14285714 </v>
   <v>       0.00000000      -0.14285714       0.14285714 </v>
   <v>       0.14285714      -0.14285714       0.14285714 </v>
   <v>       0.28571429      -0.14285714       0.14285714 </v>
   <v>       0.42857143      -0.14285714       0.14285714 </v>
   <v>      -0.42857143      -0.14285714       0.14285714 </v>
   <v>      -0.28571429      -0.14285714       0.14285714 </v>
   <v>      -0.14285714      -0.14285714       0.14285714 </v>
   <v>       0.00000000       0.00000000       0.28571429 </v>
   <v>       0.14285714       0.00000000       0.28571429 </v>
   <v>       0.28571429       0.00000000       0.28571429 </v>
   <v>       0.42857143       0.00000000       0.28571429 </v>
   <v>      -0.42857143      -0.00000000       0.28571429 </v>
   <v>      -0.28571429      -0.00000000       0.28571429 </v>
   <v>      -0.14285714      -0.00000000       0.28571429 </v>
   <v>      -0.00000000       0.14285714       0.28571429 </v>
   <v>       0.14285714       0.14285714       0.28571429 </v>
   <v>       0.28571429       0.14285714       0.28571429 </v>
   <v>       0.42857143       0.14285714       0.28571429 </v>
   <v>      -0.42857143       0.14285714       0.28571429 </v>
   <v>      -0.28571429       0.14285714       0.28571429 </v>
   <v>      -0.14285714       0.14285714       0.28571429 </v>
   <v>      -0.00000000       0.28571429       0.28571429 </v>
   <v>       0.14285714       0.28571429       0.28571429 </v>
   <v>       0.28571429       0.28571429       0.28571429 </v>
   <v>       0.42857143       0.28571429       0.28571429 </v>
   <v>      -0.42857143       0.28571429       0.28571429 </v>
   <v>      -0.28571429       0.28571429       0.28571429 </v>
   <v>      -0.14285714       0.28571429       0.28571429 </v>
   <v>       0.00000000       0.42857143       0.28571429 </v>
   <v>       0.14285714       0.42857143       0.28571429 </v>
   <v>       0.28571429       0.42857143       0.28571429 </v>
   <v>       0.42857143       0.42857143       0.28571429 </v>
   <v>      -0.42857143       0.42857143       0.28571429 </v>
   <v>      -0.28571429       0.42857143       0.28571429 </v>
   <v>      -0.14285714       0.42857143       0.28571429 </v>
   <v>      -0.00000000      -0.42857143       0.28571429 </v>
   <v>       0.14285714      -0.42857143       0.28571429 </v>
   <v>       0.28571429      -0.42857143       0.28571429 </v>
   <v>       0.42857143      -0.42857143       0.28571429 </v>
   <v>      -0.42857143      -0.42857143       0.28571429 </v>
   <v>      -0.28571429      -0.42857143       0.28571429 </v>
   <v>      -0.14285714      -0.42857143       0.28571429 </v>
   <v>       0.00000000      -0.28571429       0.28571429 </v>
   <v>       0.14285714      -0.28571429       0.28571429 </v>
   <v>       0.28571429      -0.28571429       0.28571429 </v>
   <v>       0.42857143      -0.28571429       0.28571429 </v>
   <v>      -0.42857143      -0.28571429       0.28571429 </v>
   <v>      -0.28571429      -0.28571429       0.28571429 </v>
   <v>      -0.14285714      -0.28571429       0.28571429 </v>
   <v>       0.00000000      -0.14285714       0.28571429 </v>
   <v>       0.14285714      -0.14285714       0.28571429 </v>
   <v>       0.28571429      -0.14285714       0.28571429 </v>
   <v>       0.42857143      -0.14285714       0.28571429 </v>
   <v>      -0.42857143      -0.14285714       0.28571429 </v>
   <v>      -0.28571429      -0.14285714       0.28571429 </v>
   <v>      -0.14285714      -0.14285714       0.28571429 </v>
   <v>       0.00000000       0.00000000       0.42857143 </v>
   <v>       0.14285714       0.00000000       0.42857143 </v>
   <v>       0.28571429       0.00000000       0.42857143 </v>
   <v>       0.42857143      -0.00000000       0.42857143 </v>
   <v>      -0.42857143      -0.00000000       0.42857143 </v>
   <v>      -0.28571429       0.00000000       0.42857143 </v>
   <v>      -0.14285714      -0.00000000       0.42857143 </v>
   <v>      -0.00000000       0.14285714       0.42857143 </v>
   <v>       0.14285714       0.14285714       0.42857143 </v>
   <v>       0.28571429       0.14285714       0.42857143 </v>
   <v>       0.42857143       0.14285714       0.42857143 </v>
   <v>      -0.42857143       0.14285714       0.42857143 </v>
   <v>      -0.28571429       0.14285714       0.42857143 </v>
   <v>      -0.14285714       0.14285714       0.42857143 </v>
   <v>       0.00000000       0.28571429       0.42857143 </v>
   <v>       0.14285714       0.28571429       0.42857143 </v>
   <v>       0.28571429       0.28571429       0.42857143 </v>
   <v>       0.42857143       0.28571429       0.42857143 </v>
   <v>      -0.42857143       0.28571429       0.42857143 </v>
   <v>      -0.28571429       0.28571429       0.42857143 </v>
   <v>      -0.14285714       0.28571429       0.42857143 </v>
   <v>       0.00000000       0.42857143       0.42857143 </v>
   <v>       0.14285714       0.42857143       0.42857143 </v>
   <v>       0.28571429       0.42857143       0.42857143 </v>
   <v>       0.42857143       0.42857143       0.42857143 </v>
   <v>      -0.42857143       0.42857143       0.42857143 </v>
   <v>      -0.28571429       0.42857143       0.42857143 </v>
   <v>      -0.14285714       0.42857143       0.42857143 </v>
   <v>       0.00000000      -0.42857143       0.42857143 </v>
   <v>       0.14285714      -0.42857143       0.42857143 </v>
   <v>       0.28571429      -0.42857143       0.42857143 </v>
   <v>       0.42857143      -0.42857143       0.42857143 </v>
   <v>      -0.42857143      -0.42857143       0.42857143 </v>
   <v>      -0.28571429      -0.42857143       0.42857143 </v>
   <v>      -0.14285714      -0.42857143       0.42857143 </v>
   <v>      -0.00000000      -0.28571429       0.42857143 </v>
   <v>       0.14285714      -0.28571429       0.42857143 </v>
   <v>       0.28571429      -0.28571429       0.42857143 </v>
   <v>       0.42857143      -0.28571429       0.42857143 </v>
   <v>      -0.42857143      -0.28571429       0.42857143 </v>
   <v>      -0.28571429      -0.28571429       0.42857143 </v>
   <v>      -0.14285714      -0.28571429       0.42857143 </v>
   <v>       0.00000000      -0.14285714       0.42857143 </v>
   <v>       0.14285714      -0.14285714       0.42857143 </v>
   <v>       0.28571429      -0.14285714       0.42857143 </v>
   <v>       0.42857143      -0.14285714       0.42857143 </v>
   <v>      -0.42857143      -0.14285714       0.42857143 </v>
   <v>      -0.28571429      -0.14285714       0.42857143 </v>
   <v>      -0.14285714      -0.14285714       0.42857143 </v>
  </varray>
  <varray name="weights" >
   <v>       0.00291545 </v>
   <v>       0.00583090 </v>
   <v>       0.00583090 </v>
   <v>       0.00583090 </v>
   <v>       0.00583090 </v>
   <v>       0.00583090 </v>
   <v>       0.00583090 </v>
   <v>       0.00583090 </v>
   <v>       0.00583090 </v>
   <v>       0.00583090 </v>
   <v>       0.00583090 </v>
   <v>       0.00583090 </v>
   <v>       0.00583090 </v>
   <v>       0.00583090 </v>
   <v>       0.00583090 </v>
   <v>       0.00583090 </v>
   <v>       0.00583090 </v>
   <v>       0.00583090 </v>
   <v>       0.00583090 </v>
   <v>       0.00583090 </v>
   <v>       0.00583090 </v>
   <v>       0.00583090 </v>
   <v>       0.00583090 </v>
   <v>       0.00583090 </v>
   <v>       0.00583090 </v>
   <v>       0.00583090 </v>
   <v>       0.00583090 </v>
   <v>       0.00583090 </v>
   <v>       0.00583090 </v>
   <v>       0.00583090 </v>
   <v>       0.00583090 </v>
   <v>       0.00583090 </v>
   <v>       0.00583090 </v>
   <v>       0.00583090 </v>
   <v>       0.00583090 </v>
   <v>       0.00583090 </v>
   <v>       0.00583090 </v>
   <v>       0.00583090 </v>
   <v>       0.00583090 </v>
   <v>       0.00583090 </v>
   <v>       0.00583090 </v>
   <v>       0.00583090 </v>
   <v>       0.00583090 </v>
   <v>       0.00583090 </v>
   <v>       0.00583090 </v>
   <v>       0.00583090 </v>
   <v>       0.00583090 </v>
   <v>       0.00583090 </v>
   <v>       0.00583090 </v>
   <v>       0.00583090 </v>
   <v>       0.00583090 </v>
   <v>       0.00583090 </v>
   <v>       0.00583090 </v>
   <v>       0.00583090 </v>
   <v>       0.00583090 </v>
   <v>       0.00583090 </v>
   <v>       0.00583090 </v>
   <v>       0.00583090 </v>
   <v>       0.00583090 </v>
   <v>       0.00583090 </v>
   <v>       0.00583090 </v>
   <v>       0.00583090 </v>
   <v>       0.00583090 </v>
   <v>       0.00583090 </v>
   <v>       0.00583090 </v>
   <v>       0.00583090 </v>
   <v>       0.00583090 </v>
   <v>       0.00583090 </v>
   <v>       0.00583090 </v>
   <v>       0.00583090 </v>
   <v>       0.00583090 </v>
   <v>       0.00583090 </v>
   <v>       0.00583090 </v>
   <v>       0.00583090 </v>
   <v>       0.00583090 </v>
   <v>       0.00583090 </v>
   <v>       0.00583090 </v>
   <v>       0.00583090 </v>
   <v>       0.00583090 </v>
   <v>       0.00583090 </v>
   <v>       0.00583090 </v>
   <v>       0.00583090 </v>
   <v>       0.00583090 </v>
   <v>       0.00583090 </v>
   <v>       0.00583090 </v>
   <v>       0.00583090 </v>
   <v>       0.00583090 </v>
   <v>       0.00583090 </v>
   <v>       0.00583090 </v>
   <v>       0.00583090 </v>
   <v>       0.00583090 </v>
   <v>       0.00583090 </v>
   <v>       0.00583090 </v>
   <v>       0.00583090 </v>
   <v>       0.00583090 </v>
   <v>       0.00583090 </v>
   <v>       0.00583090 </v>
   <v>       0.00583090 </v>
   <v>       0.00583090 </v>
   <v>       0.00583090 </v>
   <v>       0.00583090 </v>
   <v>       0.00583090 </v>
   <v>       0.00583090 </v>
   <v>       0.00583090 </v>
   <v>       0.00583090 </v>
   <v>       0.00583090 </v>
   <v>       0.00583090 </v>
   <v>       0.00583090 </v>
   <v>       0.00583090 </v>
   <v>       0.00583090 </v>
   <v>       0.00583090 </v>
   <v>       0.00583090 </v>
   <v>       0.00583090 </v>
   <v>       0.00583090 </v>
   <v>       0.00583090 </v>
   <v>       0.00583090 </v>
   <v>       0.00583090 </v>
   <v>       0.00583090 </v>
   <v>       0.00583090 </v>
   <v>       0.00583090 </v>
   <v>       0.00583090 </v>
   <v>       0.00583090 </v>
   <v>       0.00583090 </v>
   <v>       0.00583090 </v>
   <v>       0.00583090 </v>
   <v>       0.00583090 </v>
   <v>       0.00583090 </v>
   <v>       0.00583090 </v>
   <v>       0.00583090 </v>
   <v>       0.00583090 </v>
   <v>       0.00583090 </v>
   <v>       0.00583090 </v>
   <v>       0.00583090 </v>
   <v>       0.00583090 </v>
   <v>       0.00583090 </v>
   <v>       0.00583090 </v>
   <v>       0.00583090 </v>
   <v>       0.00583090 </v>
   <v>       0.00583090 </v>
   <v>       0.00583090 </v>
   <v>       0.00583090 </v>
   <v>       0.00583090 </v>
   <v>       0.00583090 </v>
   <v>       0.00583090 </v>
   <v>       0.00583090 </v>
   <v>       0.00583090 </v>
   <v>       0.00583090 </v>
   <v>       0.00583090 </v>
   <v>       0.00583090 </v>
   <v>       0.00583090 </v>
   <v>       0.00583090 </v>
   <v>       0.00583090 </v>
   <v>       0.00583090 </v>
   <v>       0.00583090 </v>
   <v>       0.00583090 </v>
   <v>       0.00583090 </v>
   <v>       0.00583090 </v>
   <v>       0.00583090 </v>
   <v>       0.00583090 </v>
   <v>       0.00583090 </v>
   <v>       0.00583090 </v>
   <v>       0.00583090 </v>
   <v>       0.00583090 </v>
   <v>       0.00583090 </v>
   <v>       0.00583090 </v>
   <v>       0.00583090 </v>
   <v>       0.00583090 </v>
   <v>       0.00583090 </v>
   <v>       0.00583090 </v>
   <v>       0.00583090 </v>
   <v>       0.00583090 </v>
   <v>       0.00583090 </v>
  </varray>
 </kpoints>
 <parameters>
  <separator name="general" >
   <i type="string" name="SYSTEM">Nb - Mo - Ta - Ti - V SQS</i>
   <i type="logical" name="LCOMPAT"> F  </i>
  </separator>
  <separator name="electronic" >
   <i type="string" name="PREC">normal</i>
   <i name="ENMAX">    600.00000000</i>
   <i name="ENAUG">    455.65900000</i>
   <i name="EDIFF">      0.00010000</i>
   <i type="int" name="IALGO">    38</i>
   <i type="int" name="IWAVPR">    11</i>
   <i type="int" name="NBANDS">   120</i>
   <i name="NELECT">    193.00000000</i>
   <i type="int" name="TURBO">     0</i>
   <i type="int" name="IRESTART">     0</i>
   <i type="int" name="NREBOOT">     0</i>
   <i type="int" name="NMIN">     0</i>
   <i name="EREF">      0.00000000</i>
   <separator name="electronic smearing" >
    <i type="int" name="ISMEAR">     1</i>
    <i name="SIGMA">      0.20000000</i>
    <i name="KSPACING">      0.50000000</i>
    <i type="logical" name="KGAMMA"> T  </i>
   </separator>
   <separator name="electronic projectors" >
    <i type="logical" name="LREAL"> T  </i>
    <v name="ROPT">     -0.00050000     -0.00050000     -0.00050000     -0.00050000     -0.00050000</v>
    <i type="int" name="LMAXPAW">  -100</i>
    <i type="int" name="LMAXMIX">     2</i>
    <i type="logical" name="NLSPLINE"> F  </i>
   </separator>
   <separator name="electronic startup" >
    <i type="int" name="ISTART">     0</i>
    <i type="int" name="ICHARG">     0</i>
    <i type="int" name="INIWAV">     1</i>
   </separator>
   <separator name="electronic spin" >
    <i type="int" name="ISPIN">     1</i>
    <i type="logical" name="LNONCOLLINEAR"> F  </i>
    <v name="MAGMOM">      1.00000000      1.00000000      1.00000000      1.00000000      1.00000000      1.00000000      1.00000000      1.00000000      1.00000000      1.00000000      1.00000000      1.00000000      1.00000000      1.00000000      1.00000000      1.00000000      1.00000000      1.00000000      1.00000000      1.00000000
      1.00000000      1.00000000      1.00000000      1.00000000      1.00000000      1.00000000      1.00000000      1.00000000      1.00000000</v>
    <i name="NUPDOWN">     -1.00000000</i>
    <i type="logical" name="LSORBIT"> F  </i>
    <v name="SAXIS">      0.00000000      0.00000000      1.00000000</v>
    <i type="logical" name="LSPIRAL"> F  </i>
    <v name="QSPIRAL">      0.00000000      0.00000000      0.00000000</v>
    <i type="logical" name="LZEROZ"> F  </i>
   </separator>
   <separator name="electronic exchange-correlation" >
    <i type="logical" name="LASPH"> F  </i>
    <i type="logical" name="LMETAGGA"> F  </i>
   </separator>
   <separator name="electronic convergence" >
    <i type="int" name="NELM">    60</i>
    <i type="int" name="NELMDL">    -5</i>
    <i type="int" name="NELMIN">     2</i>
    <i name="ENINI">    600.00000000</i>
    <separator name="electronic convergence detail" >
     <i type="logical" name="LDIAG"> T  </i>
     <i type="logical" name="LSUBROT"> F  </i>
     <i name="WEIMIN">      0.00100000</i>
     <i name="EBREAK">      0.00000021</i>
     <i name="DEPER">      0.30000000</i>
     <i type="int" name="NRMM">     4</i>
     <i name="TIME">      0.40000000</i>
    </separator>
   </separator>
   <separator name="electronic mixer" >
    <i name="AMIX">      0.40000000</i>
    <i name="BMIX">      1.00000000</i>
    <i name="AMIN">      0.10000000</i>
    <i name="AMIX_MAG">      1.60000000</i>
    <i name="BMIX_MAG">      1.00000000</i>
    <separator name="electronic mixer details" >
     <i type="int" name="IMIX">     4</i>
     <i type="logical" name="MIXFIRST"> F  </i>
     <i type="int" name="MAXMIX">   -45</i>
     <i name="WC">    100.00000000</i>
     <i type="int" name="INIMIX">     1</i>
     <i type="int" name="MIXPRE">     1</i>
     <i type="int" name="MREMOVE">     5</i>
    </separator>
   </separator>
   <separator name="electronic dipolcorrection" >
    <i type="logical" name="LDIPOL"> F  </i>
    <i type="logical" name="LMONO"> F  </i>
    <i type="int" name="IDIPOL">     0</i>
    <i name="EPSILON">      1.00000000</i>
    <v name="DIPOL">   -100.00000000   -100.00000000   -100.00000000</v>
    <i name="EFIELD">      0.00000000</i>
   </separator>
  </separator>
  <separator name="grids" >
   <i type="int" name="NGX">    36</i>
   <i type="int" name="NGY">    50</i>
   <i type="int" name="NGZ">    70</i>
   <i type="int" name="NGXF">    72</i>
   <i type="int" name="NGYF">   100</i>
   <i type="int" name="NGZF">   140</i>
   <i type="logical" name="ADDGRID"> F  </i>
  </separator>
  <separator name="ionic" >
   <i type="int" name="NSW">    50</i>
   <i type="int" name="IBRION">     2</i>
   <i type="int" name="MDALGO">     0</i>
   <i type="int" name="ISIF">     3</i>
   <i name="PSTRESS">      0.00000000</i>
   <i name="EDIFFG">      0.00100000</i>
   <i type="int" name="NFREE">     1</i>
   <i name="POTIM">      0.50000000</i>
   <i name="SMASS">     -3.00000000</i>
   <i name="SCALEE">      1.00000000</i>
  </separator>
  <separator name="ionic md" >
   <i name="TEBEG">      0.00010000</i>
   <i name="TEEND">      0.00010000</i>
   <i type="int" name="NBLOCK">     1</i>
   <i type="int" name="KBLOCK">    50</i>
   <i type="int" name="NPACO">   256</i>
   <i name="APACO">     16.00000000</i>
  </separator>
  <separator name="symmetry" >
   <i type="int" name="ISYM">     2</i>
   <i name="SYMPREC">      0.00001000</i>
  </separator>
  <separator name="dos" >
   <i type="int" name="LORBIT">     0</i>
   <v name="RWIGS">     -1.00000000     -1.00000000     -1.00000000     -1.00000000     -1.00000000</v>
   <i type="int" name="NEDOS">   301</i>
   <i name="EMIN">     10.00000000</i>
   <i name="EMAX">    -10.00000000</i>
   <i name="EFERMI">      0.00000000</i>
  </separator>
  <separator name="writing" >
   <i type="int" name="NWRITE">     2</i>
   <i type="logical" name="LWAVE"> T  </i>
   <i type="logical" name="LDOWNSAMPLE"> F  </i>
   <i type="logical" name="LCHARG"> T  </i>
   <i type="logical" name="LPARD"> F  </i>
   <i type="logical" name="LVTOT"> F  </i>
   <i type="logical" name="LVHAR"> F  </i>
   <i type="logical" name="LELF"> F  </i>
   <i type="logical" name="LOPTICS"> F  </i>
   <v name="STM">      0.00000000      0.00000000      0.00000000      0.00000000      0.00000000      0.00000000      0.00000000</v>
  </separator>
  <separator name="performance" >
   <i type="int" name="NPAR">    12</i>
   <i type="int" name="NSIM">     4</i>
   <i type="int" name="NBLK">    -1</i>
   <i type="logical" name="LPLANE"> T  </i>
   <i type="logical" name="LSCALAPACK"> T  </i>
   <i type="logical" name="LSCAAWARE"> F  </i>
   <i type="logical" name="LSCALU"> F  </i>
   <i type="logical" name="LASYNC"> F  </i>
   <i type="logical" name="LORBITALREAL"> F  </i>
  </separator>
  <separator name="miscellaneous" >
   <i type="int" name="IDIOT">     3</i>
   <i type="int" name="ISPECIAL">     0</i>
   <i type="logical" name="LMUSIC"> F  </i>
   <v name="POMASS">     92.91000000     95.94000000    180.94800000     47.88000000     50.94100000</v>
   <v name="DARWINR">      0.00000000      0.00000000      0.00000000      0.00000000      0.00000000</v>
   <v name="DARWINV">      1.00000000      1.00000000      1.00000000      1.00000000      1.00000000</v>
   <i type="logical" name="LCORR"> T  </i>
  </separator>
  <i type="logical" name="GGA_COMPAT"> T  </i>
  <i type="logical" name="LBERRY"> F  </i>
  <i type="int" name="ICORELEVEL">     0</i>
  <i type="logical" name="LDAU"> F  </i>
  <i type="int" name="I_CONSTRAINED_M">     0</i>
  <separator name="electronic exchange-correlation" >
   <i type="string" name="GGA">PS</i>
   <i type="int" name="VOSKOWN">     0</i>
   <i type="logical" name="LHFCALC"> F  </i>
   <i type="string" name="PRECFOCK"></i>
   <i type="logical" name="LSYMGRAD"> F  </i>
   <i type="logical" name="LHFONE"> F  </i>
   <i type="logical" name="LRHFCALC"> F  </i>
   <i type="logical" name="LTHOMAS"> F  </i>
   <i type="logical" name="LMODELHF"> F  </i>
   <i name="ENCUT4O">     -1.00000000</i>
   <i type="int" name="EXXOEP">     0</i>
   <i type="int" name="FOURORBIT">     0</i>
   <i name="AEXX">      0.00000000</i>
   <i name="HFALPHA">      0.00000000</i>
   <i name="MCALPHA">      0.00000000</i>
   <i name="ALDAX">      1.00000000</i>
   <i name="AGGAX">      1.00000000</i>
   <i name="ALDAC">      1.00000000</i>
   <i name="AGGAC">      1.00000000</i>
   <i type="int" name="NKREDX">     1</i>
   <i type="int" name="NKREDY">     1</i>
   <i type="int" name="NKREDZ">     1</i>
   <i type="logical" name="SHIFTRED"> F  </i>
   <i type="logical" name="ODDONLY"> F  </i>
   <i type="logical" name="EVENONLY"> F  </i>
   <i type="int" name="LMAXFOCK">     0</i>
   <i type="int" name="NMAXFOCKAE">     0</i>
   <i type="logical" name="LFOCKAEDFT"> F  </i>
   <i name="HFSCREEN">      0.00000000</i>
   <i name="HFSCREENC">      0.00000000</i>
   <i type="int" name="NBANDSGWLOW">     0</i>
  </separator>
  <separator name="vdW DFT" >
   <i type="logical" name="LUSE_VDW"> F  </i>
   <i name="Zab_VDW">     -0.84910000</i>
   <i name="PARAM1">      0.12340000</i>
   <i name="PARAM2">      1.00000000</i>
   <i name="PARAM3">      0.00000000</i>
  </separator>
  <separator name="model GW" >
   <i type="int" name="MODEL_GW">     0</i>
   <i name="MODEL_EPS0">      9.79277462</i>
   <i name="MODEL_ALPHA">      1.00000000</i>
  </separator>
  <separator name="linear response parameters" >
   <i type="logical" name="LEPSILON"> F  </i>
   <i type="logical" name="LRPA"> F  </i>
   <i type="logical" name="LNABLA"> F  </i>
   <i type="logical" name="LVEL"> F  </i>
   <i type="int" name="KINTER">     0</i>
   <i name="CSHIFT">      0.10000000</i>
   <i name="OMEGAMAX">     -1.00000000</i>
   <i name="DEG_THRESHOLD">      0.00200000</i>
   <i name="RTIME">     -0.10000000</i>
   <i name="WPLASMAI">      0.00000000</i>
   <v name="DFIELD">      0.00000000      0.00000000      0.00000000</v>
   <v name="WPLASMA">      0.00000000      0.00000000      0.00000000      0.00000000      0.00000000      0.00000000      0.00000000      0.00000000      0.00000000</v>
  </separator>
  <separator name="orbital magnetization" >
   <i type="logical" name="NUCIND"> F  </i>
   <v name="MAGPOS">      0.00000000      0.00000000      0.00000000</v>
   <i type="logical" name="LNICSALL"> T  </i>
   <i type="logical" name="ORBITALMAG"> F  </i>
   <i type="logical" name="LMAGBLOCH"> F  </i>
   <i type="logical" name="LCHIMAG"> F  </i>
   <i type="logical" name="LGAUGE"> T  </i>
   <i type="int" name="MAGATOM">     0</i>
   <v name="MAGDIPOL">      0.00000000      0.00000000      0.00000000</v>
   <v name="AVECCONST">      0.00000000      0.00000000      0.00000000</v>
  </separator>
  <separator name="response functions" >
   <i type="logical" name="LADDER"> F  </i>
   <i type="logical" name="LRPAFORCE"> F  </i>
   <i type="logical" name="LFXC"> F  </i>
   <i type="logical" name="LHARTREE"> T  </i>
   <i type="int" name="IBSE">     0</i>
   <v type="int" name="KPOINT">    -1     0     0     0</v>
   <i type="logical" name="LTCTE"> F  </i>
   <i type="logical" name="LTETE"> F  </i>
   <i type="logical" name="LTRIPLET"> F  </i>
   <i type="logical" name="LFXCEPS"> F  </i>
   <i type="logical" name="LFXHEG"> F  </i>
   <i type="int" name="NATURALO">     2</i>
   <i type="logical" name="L2ORDER"> F  </i>
   <i type="logical" name="LMP2LT"> F  </i>
   <i type="logical" name="LUSEW"> F  </i>
   <i name="ENCUTGW">     -2.00000000</i>
   <i name="ENCUTGWSOFT">     -2.00000000</i>
   <i name="ENCUTLF">     -1.00000000</i>
   <i type="int" name="LMAXMP2">    -1</i>
   <i name="SCISSOR">      0.00000000</i>
   <i type="int" name="NOMEGA">     0</i>
   <i type="int" name="NOMEGAR">     0</i>
   <i type="int" name="NBANDSGW">    -1</i>
   <i type="int" name="NBANDSO">    -1</i>
   <i type="int" name="NBANDSV">    -1</i>
   <i type="int" name="NELM">     1</i>
   <i type="int" name="NELMHF">     1</i>
   <i type="int" name="DIM">     3</i>
   <i type="int" name="ANTIRES">     0</i>
   <i name="OMEGAMAX">    -30.00000000</i>
   <i name="OMEGAMIN">    -30.00000000</i>
   <i name="OMEGATL">   -200.00000000</i>
   <i type="int" name="OMEGAGRID">   140</i>
   <i name="CSHIFT">     -0.10000000</i>
   <i type="logical" name="SELFENERGY"> F  </i>
   <i type="logical" name="LSPECTRAL"> F  </i>
   <i type="logical" name="LSPECTRALGW"> F  </i>
   <i type="logical" name="LSINGLES"> F  </i>
   <i type="logical" name="LFERMIGW"> F  </i>
   <i type="logical" name="ODDONLYGW"> F  </i>
   <i type="logical" name="EVENONLYGW"> F  </i>
   <i type="int" name="NKREDLFX">     1</i>
   <i type="int" name="NKREDLFY">     1</i>
   <i type="int" name="NKREDLFZ">     1</i>
   <i type="int" name="MAXMEM">  2800</i>
   <i type="int" name="TELESCOPE">     0</i>
   <i type="int" name="TAUPAR">     1</i>
   <i type="int" name="OMEGAPAR">    -1</i>
   <i name="LAMBDA">      1.00000000</i>
  </separator>
  <separator name="External order field" >
   <i name="OFIELD_KAPPA">      0.00000000</i>
   <v name="OFIELD_K">      0.00000000      0.00000000      0.00000000</v>
   <i name="OFIELD_Q6_NEAR">      0.00000000</i>
   <i name="OFIELD_Q6_FAR">      0.00000000</i>
   <i name="OFIELD_A">      0.00000000</i>
  </separator>
  <separator name="solvation model" >
   <i type="logical" name="LSOL"> F  </i>
  </separator>
 </parameters>
 <atominfo>
  <atoms>      29 </atoms>
  <types>       5 </types>
  <array name="atoms" >
   <dimension dim="1">ion</dimension>
   <field type="string">element</field>
   <field type="int">atomtype</field>
   <set>
    <rc><c>Nb</c><c>   1</c></rc>
    <rc><c>Nb</c><c>   1</c></rc>
    <rc><c>Nb</c><c>   1</c></rc>
    <rc><c>Nb</c><c>   1</c></rc>
    <rc><c>Nb</c><c>   1</c></rc>
    <rc><c>Nb</c><c>   1</c></rc>
    <rc><c>Mo</c><c>   2</c></rc>
    <rc><c>Mo</c><c>   2</c></rc>
    <rc><c>Mo</c><c>   2</c></rc>
    <rc><c>Mo</c><c>   2</c></rc>
    <rc><c>Mo</c><c>   2</c></rc>
    <rc><c>Mo</c><c>   2</c></rc>
    <rc><c>Ta</c><c>   3</c></rc>
    <rc><c>Ta</c><c>   3</c></rc>
    <rc><c>Ta</c><c>   3</c></rc>
    <rc><c>Ta</c><c>   3</c></rc>
    <rc><c>Ta</c><c>   3</c></rc>
    <rc><c>Ti</c><c>   4</c></rc>
    <rc><c>Ti</c><c>   4</c></rc>
    <rc><c>Ti</c><c>   4</c></rc>
    <rc><c>Ti</c><c>   4</c></rc>
    <rc><c>Ti</c><c>   4</c></rc>
    <rc><c>Ti</c><c>   4</c></rc>
    <rc><c>V </c><c>   5</c></rc>
    <rc><c>V </c><c>   5</c></rc>
    <rc><c>V </c><c>   5</c></rc>
    <rc><c>V </c><c>   5</c></rc>
    <rc><c>V </c><c>   5</c></rc>
    <rc><c>V </c><c>   5</c></rc>
   </set>
  </array>
  <array name="atomtypes" >
   <dimension dim="1">type</dimension>
   <field type="int">atomspertype</field>
   <field type="string">element</field>
   <field>mass</field>
   <field>valence</field>
   <field type="string">pseudopotential</field>
   <set>
    <rc><c>   6</c><c>Nb</c><c>     92.91000000</c><c>     13.00000000</c><c>  PAW_PBE Nb_sv 25May2007               </c></rc>
    <rc><c>   6</c><c>Mo</c><c>     95.94000000</c><c>      6.00000000</c><c>  PAW_PBE Mo 08Apr2002                  </c></rc>
    <rc><c>   5</c><c>Ta</c><c>    180.94800000</c><c>      5.00000000</c><c>  PAW_PBE Ta 17Jan2003                  </c></rc>
    <rc><c>   6</c><c>Ti</c><c>     47.88000000</c><c>      4.00000000</c><c>  PAW_PBE Ti 08Apr2002                  </c></rc>
    <rc><c>   6</c><c>V </c><c>     50.94100000</c><c>      5.00000000</c><c>  PAW_PBE V 08Apr2002                   </c></rc>
   </set>
  </array>
 </atominfo>
 <structure name="initialpos" >
  <crystal>
   <varray name="basis" >
    <v>      -3.16000000      -3.16000000      -3.16000000 </v>
    <v>       1.58000000       1.58000000      -7.90000000 </v>
    <v>       7.90000000      -7.90000000      -1.58000000 </v>
   </varray>
   <i name="volume">    473.31744000 </i>
   <varray name="rec_basis" >
    <v>      -0.13713080      -0.12658228      -0.05274262 </v>
    <v>       0.04219409       0.06329114      -0.10548523 </v>
    <v>       0.06329114      -0.06329114       0.00000000 </v>
   </varray>
  </crystal>
  <varray name="positions" >
   <v>       0.96666667       0.93333333       0.40000000 </v>
   <v>       0.63333333       0.26666667       0.40000000 </v>
   <v>       0.50000000       0.00000000       0.00000000 </v>
   <v>       0.00000000       0.00000000       0.00000000 </v>
   <v>       0.10000000       0.20000000       0.80000000 </v>
   <v>       0.03333333       0.06666667       0.60000000 </v>
   <v>       0.90000000       0.80000000       0.20000000 </v>
   <v>       0.80000000       0.60000000       0.40000000 </v>
   <v>       0.73333333       0.46666667       0.20000000 </v>
   <v>       0.66666667       0.33333333       0.00000000 </v>
   <v>       0.36666667       0.73333333       0.60000000 </v>
   <v>       0.13333333       0.26666667       0.40000000 </v>
   <v>       0.83333333       0.66666667       0.00000000 </v>
   <v>       0.56666667       0.13333333       0.20000000 </v>
   <v>       0.40000000       0.80000000       0.20000000 </v>
   <v>       0.43333333       0.86666667       0.80000000 </v>
   <v>       0.30000000       0.60000000       0.40000000 </v>
   <v>       0.86666667       0.73333333       0.60000000 </v>
   <v>       0.46666667       0.93333333       0.40000000 </v>
   <v>       0.16666667       0.33333333       0.00000000 </v>
   <v>       0.26666667       0.53333333       0.80000000 </v>
   <v>       0.20000000       0.40000000       0.60000000 </v>
   <v>       0.06666667       0.13333333       0.20000000 </v>
   <v>       0.76666667       0.53333333       0.80000000 </v>
   <v>       0.70000000       0.40000000       0.60000000 </v>
   <v>       0.60000000       0.20000000       0.80000000 </v>
   <v>       0.53333333       0.06666667       0.60000000 </v>
   <v>       0.33333333       0.66666667       0.00000000 </v>
   <v>       0.23333333       0.46666667       0.20000000 </v>
  </varray>
 </structure>
 <calculation>
  <scstep>
   <time name="dav">   44.15   44.21</time>
   <time name="total">   44.29   44.35</time>
   <energy>
    <i name="alphaZ">   1153.76813855 </i>
    <i name="ewald"> -11124.90400229 </i>
    <i name="hartreedc">   -110.92806981 </i>
    <i name="XCdc">   -916.43835030 </i>
    <i name="pawpsdc"> 523188.06945366 </i>
    <i name="pawaedc">-521952.31874052 </i>
    <i name="eentropy">     -0.00056546 </i>
    <i name="bandstr">  -7110.48404771 </i>
    <i name="atom">  12875.17371654 </i>
    <i name="e_fr_energy">  -3998.06246735 </i>
    <i name="e_wo_entrp">  -3998.06190189 </i>
    <i name="e_0_energy">  -3998.06227886 </i>
   </energy>
  </scstep>
  <scstep>
   <time name="dav">   51.95   52.02</time>
   <time name="total">   51.96   52.03</time>
   <energy>
    <i name="e_fr_energy">  -9416.44943255 </i>
    <i name="e_wo_entrp">  -9416.44795393 </i>
    <i name="e_0_energy">  -9416.44893968 </i>
   </energy>
  </scstep>
  <scstep>
   <time name="dav">   56.16   56.23</time>
   <time name="total">   56.17   56.24</time>
   <energy>
    <i name="e_fr_energy"> -10278.46517408 </i>
    <i name="e_wo_entrp"> -10278.46811477 </i>
    <i name="e_0_energy"> -10278.46615431 </i>
   </energy>
  </scstep>
  <scstep>
   <time name="dav">   56.12   56.19</time>
   <time name="total">   56.12   56.20</time>
   <energy>
    <i name="e_fr_energy"> -10526.43532001 </i>
    <i name="e_wo_entrp"> -10526.43404394 </i>
    <i name="e_0_energy"> -10526.43489465 </i>
   </energy>
  </scstep>
  <scstep>
   <time name="dav">   56.23   56.30</time>
   <time name="total">   56.93   57.00</time>
   <energy>
    <i name="e_fr_energy"> -10697.55115358 </i>
    <i name="e_wo_entrp"> -10697.54644578 </i>
    <i name="e_0_energy"> -10697.54958431 </i>
   </energy>
  </scstep>
  <scstep>
   <time name="dav">   46.45   46.50</time>
   <time name="total">   47.23   47.30</time>
   <energy>
    <i name="e_fr_energy">  -1103.26537822 </i>
    <i name="e_wo_entrp">  -1103.26462773 </i>
    <i name="e_0_energy">  -1103.26512806 </i>
   </energy>
  </scstep>
  <scstep>
   <time name="dav">   49.63   49.68</time>
   <time name="total">   50.34   50.40</time>
   <energy>
    <i name="e_fr_energy">   -994.96807794 </i>
    <i name="e_wo_entrp">   -994.96853753 </i>
    <i name="e_0_energy">   -994.96823114 </i>
   </energy>
  </scstep>
  <scstep>
   <time name="dav">   49.98   50.05</time>
   <time name="total">   50.66   50.73</time>
   <energy>
    <i name="e_fr_energy">   -698.75350516 </i>
    <i name="e_wo_entrp">   -698.75290035 </i>
    <i name="e_0_energy">   -698.75330356 </i>
   </energy>
  </scstep>
  <scstep>
   <time name="dav">   52.14   52.20</time>
   <time name="total">   52.80   52.86</time>
   <energy>
    <i name="e_fr_energy">   -590.20531058 </i>
    <i name="e_wo_entrp">   -590.19015448 </i>
    <i name="e_0_energy">   -590.20025855 </i>
   </energy>
  </scstep>
  <scstep>
   <time name="dav">   49.78   49.84</time>
   <time name="total">   50.44   50.50</time>
   <energy>
    <i name="e_fr_energy">   -568.39963520 </i>
    <i name="e_wo_entrp">   -568.39153637 </i>
    <i name="e_0_energy">   -568.39693559 </i>
   </energy>
  </scstep>
  <scstep>
   <time name="dav">   52.57   52.64</time>
   <time name="total">   53.23   53.31</time>
   <energy>
    <i name="e_fr_energy">   -541.14705342 </i>
    <i name="e_wo_entrp">   -541.16095673 </i>
    <i name="e_0_energy">   -541.15168786 </i>
   </energy>
  </scstep>
  <scstep>
   <time name="dav">   51.51   51.57</time>
   <time name="total">   52.17   52.24</time>
   <energy>
    <i name="e_fr_energy">   -615.54558517 </i>
    <i name="e_wo_entrp">   -615.54709629 </i>
    <i name="e_0_energy">   -615.54608888 </i>
   </energy>
  </scstep>
  <scstep>
   <time name="dav">   53.31   53.37</time>
   <time name="total">   53.97   54.03</time>
   <energy>
    <i name="e_fr_energy">   -530.32804831 </i>
    <i name="e_wo_entrp">   -530.32834757 </i>
    <i name="e_0_energy">   -530.32814806 </i>
   </energy>
  </scstep>
  <scstep>
   <time name="dav">   49.62   49.68</time>
   <time name="total">   50.27   50.34</time>
   <energy>
    <i name="e_fr_energy">   -349.04520420 </i>
    <i name="e_wo_entrp">   -349.04427583 </i>
    <i name="e_0_energy">   -349.04489474 </i>
   </energy>
  </scstep>
  <scstep>
   <time name="dav">   50.12   50.18</time>
   <time name="total">   50.78   50.84</time>
   <energy>
    <i name="e_fr_energy">   -362.05765831 </i>
    <i name="e_wo_entrp">   -362.06387298 </i>
    <i name="e_0_energy">   -362.05972987 </i>
   </energy>
  </scstep>
  <scstep>
   <time name="dav">   50.04   50.10</time>
   <time name="total">   50.71   50.77</time>
   <energy>
    <i name="e_fr_energy">   -343.17317085 </i>
    <i name="e_wo_entrp">   -343.17457591 </i>
    <i name="e_0_energy">   -343.17363920 </i>
   </energy>
  </scstep>
  <scstep>
   <time name="dav">   50.11   50.16</time>
   <time name="total">   50.75   50.81</time>
   <energy>
    <i name="e_fr_energy">   -329.76506762 </i>
    <i name="e_wo_entrp">   -329.75328129 </i>
    <i name="e_0_energy">   -329.76113884 </i>
   </energy>
  </scstep>
  <scstep>
   <time name="dav">   48.43   48.49</time>
   <time name="total">   49.09   49.16</time>
   <energy>
    <i name="e_fr_energy">   -333.37866114 </i>
    <i name="e_wo_entrp">   -333.36683945 </i>
    <i name="e_0_energy">   -333.37472058 </i>
   </energy>
  </scstep>
  <scstep>
   <time name="dav">   53.06   53.12</time>
   <time name="total">   53.70   53.76</time>
   <energy>
    <i name="e_fr_energy">   -330.23168885 </i>
    <i name="e_wo_entrp">   -330.21786592 </i>
    <i name="e_0_energy">   -330.22708121 </i>
   </energy>
  </scstep>
  <scstep>
   <time name="dav">   52.00   52.06</time>
   <time name="total">   52.67   52.74</time>
   <energy>
    <i name="e_fr_energy">   -317.88260996 </i>
    <i name="e_wo_entrp">   -317.87330088 </i>
    <i name="e_0_energy">   -317.87950693 </i>
   </energy>
  </scstep>
  <scstep>
   <time name="dav">   48.03   48.08</time>
   <time name="total">   48.68   48.74</time>
   <energy>
    <i name="e_fr_energy">   -313.93522829 </i>
    <i name="e_wo_entrp">   -313.93149598 </i>
    <i name="e_0_energy">   -313.93398419 </i>
   </energy>
  </scstep>
  <scstep>
   <time name="dav">   50.29   50.34</time>
   <time name="total">   50.95   51.02</time>
   <energy>
    <i name="e_fr_energy">   -309.09264217 </i>
    <i name="e_wo_entrp">   -309.06815360 </i>
    <i name="e_0_energy">   -309.08447931 </i>
   </energy>
  </scstep>
  <scstep>
   <time name="dav">   48.29   48.35</time>
   <time name="total">   48.94   49.00</time>
   <energy>
    <i name="e_fr_energy">   -307.69499773 </i>
    <i name="e_wo_entrp">   -307.68379820 </i>
    <i name="e_0_energy">   -307.69126455 </i>
   </energy>
  </scstep>
  <scstep>
   <time name="dav">   51.40   51.46</time>
   <time name="total">   52.06   52.12</time>
   <energy>
    <i name="e_fr_energy">   -306.59188920 </i>
    <i name="e_wo_entrp">   -306.57855729 </i>
    <i name="e_0_energy">   -306.58744523 </i>
   </energy>
  </scstep>
  <scstep>
   <time name="dav">   48.41   48.47</time>
   <time name="total">   49.07   49.12</time>
   <energy>
    <i name="e_fr_energy">   -305.27505470 </i>
    <i name="e_wo_entrp">   -305.25436536 </i>
    <i name="e_0_energy">   -305.26815825 </i>
   </energy>
  </scstep>
  <scstep>
   <time name="dav">   52.90   52.96</time>
   <time name="total">   53.56   53.63</time>
   <energy>
    <i name="e_fr_energy">   -305.03526251 </i>
    <i name="e_wo_entrp">   -305.02004070 </i>
    <i name="e_0_energy">   -305.03018857 </i>
   </energy>
  </scstep>
  <scstep>
   <time name="dav">   50.64   50.70</time>
   <time name="total">   51.30   51.36</time>
   <energy>
    <i name="e_fr_energy">   -304.64967375 </i>
    <i name="e_wo_entrp">   -304.63673790 </i>
    <i name="e_0_energy">   -304.64536180 </i>
   </energy>
  </scstep>
  <scstep>
   <time name="dav">   52.59   52.65</time>
   <time name="total">   53.25   53.33</time>
   <energy>
    <i name="e_fr_energy">   -303.94535008 </i>
    <i name="e_wo_entrp">   -303.91751740 </i>
    <i name="e_0_energy">   -303.93607252 </i>
   </energy>
  </scstep>
  <scstep>
   <time name="dav">   50.49   50.55</time>
   <time name="total">   51.14   51.21</time>
   <energy>
    <i name="e_fr_energy">   -303.82522625 </i>
    <i name="e_wo_entrp">   -303.80130696 </i>
    <i name="e_0_energy">   -303.81725315 </i>
   </energy>
  </scstep>
  <scstep>
   <time name="dav">   51.95   52.01</time>
   <time name="total">   52.61   52.68</time>
   <energy>
    <i name="e_fr_energy">   -303.76026682 </i>
    <i name="e_wo_entrp">   -303.73413852 </i>
    <i name="e_0_energy">   -303.75155739 </i>
   </energy>
  </scstep>
  <scstep>
   <time name="dav">   50.34   50.40</time>
   <time name="total">   51.00   51.06</time>
   <energy>
    <i name="e_fr_energy">   -303.70367540 </i>
    <i name="e_wo_entrp">   -303.68009042 </i>
    <i name="e_0_energy">   -303.69581374 </i>
   </energy>
  </scstep>
  <scstep>
   <time name="dav">   51.11   51.17</time>
   <time name="total">   51.76   51.83</time>
   <energy>
    <i name="e_fr_energy">   -303.69546767 </i>
    <i name="e_wo_entrp">   -303.67122808 </i>
    <i name="e_0_energy">   -303.68738780 </i>
   </energy>
  </scstep>
  <scstep>
   <time name="dav">   48.87   48.93</time>
   <time name="total">   49.52   49.58</time>
   <energy>
    <i name="e_fr_energy">   -303.65027073 </i>
    <i name="e_wo_entrp">   -303.62650071 </i>
    <i name="e_0_energy">   -303.64234739 </i>
   </energy>
  </scstep>
  <scstep>
   <time name="dav">   48.28   48.33</time>
   <time name="total">   48.95   49.01</time>
   <energy>
    <i name="e_fr_energy">   -303.64185089 </i>
    <i name="e_wo_entrp">   -303.61779513 </i>
    <i name="e_0_energy">   -303.63383230 </i>
   </energy>
  </scstep>
  <scstep>
   <time name="dav">   47.68   47.74</time>
   <time name="total">   48.34   48.40</time>
   <energy>
    <i name="e_fr_energy">   -303.62877892 </i>
    <i name="e_wo_entrp">   -303.60582013 </i>
    <i name="e_0_energy">   -303.62112599 </i>
   </energy>
  </scstep>
  <scstep>
   <time name="dav">   48.67   48.73</time>
   <time name="total">   49.37   49.44</time>
   <energy>
    <i name="e_fr_energy">   -303.61879181 </i>
    <i name="e_wo_entrp">   -303.59572767 </i>
    <i name="e_0_energy">   -303.61110377 </i>
   </energy>
  </scstep>
  <scstep>
   <time name="dav">   48.12   48.18</time>
   <time name="total">   48.77   48.83</time>
   <energy>
    <i name="e_fr_energy">   -303.61646548 </i>
    <i name="e_wo_entrp">   -303.59347497 </i>
    <i name="e_0_energy">   -303.60880198 </i>
   </energy>
  </scstep>
  <scstep>
   <time name="dav">   47.61   47.66</time>
   <time name="total">   48.27   48.34</time>
   <energy>
    <i name="e_fr_energy">   -303.61156703 </i>
    <i name="e_wo_entrp">   -303.58850320 </i>
    <i name="e_0_energy">   -303.60387909 </i>
   </energy>
  </scstep>
  <scstep>
   <time name="dav">   44.87   44.92</time>
   <time name="total">   45.52   45.58</time>
   <energy>
    <i name="e_fr_energy">   -303.60962158 </i>
    <i name="e_wo_entrp">   -303.58663082 </i>
    <i name="e_0_energy">   -303.60195799 </i>
   </energy>
  </scstep>
  <scstep>
   <time name="dav">   47.44   47.50</time>
   <time name="total">   48.11   48.18</time>
   <energy>
    <i name="e_fr_energy">   -303.60866064 </i>
    <i name="e_wo_entrp">   -303.58549244 </i>
    <i name="e_0_energy">   -303.60093791 </i>
   </energy>
  </scstep>
  <scstep>
   <time name="dav">   41.17   41.22</time>
   <time name="total">   41.83   41.88</time>
   <energy>
    <i name="e_fr_energy">   -303.60833841 </i>
    <i name="e_wo_entrp">   -303.58503999 </i>
    <i name="e_0_energy">   -303.60057227 </i>
   </energy>
  </scstep>
  <scstep>
   <time name="dav">   37.59   37.64</time>
   <time name="total">   38.25   38.31</time>
   <energy>
    <i name="e_fr_energy">   -303.60812127 </i>
    <i name="e_wo_entrp">   -303.58472033 </i>
    <i name="e_0_energy">   -303.60032096 </i>
   </energy>
  </scstep>
  <scstep>
   <time name="dav">   35.63   35.68</time>
   <time name="total">   36.28   36.33</time>
   <energy>
    <i name="e_fr_energy">   -303.60771740 </i>
    <i name="e_wo_entrp">   -303.58413861 </i>
    <i name="e_0_energy">   -303.59985780 </i>
   </energy>
  </scstep>
  <scstep>
   <time name="dav">   38.49   38.54</time>
   <time name="total">   39.15   39.20</time>
   <energy>
    <i name="e_fr_energy">   -303.60756413 </i>
    <i name="e_wo_entrp">   -303.58390725 </i>
    <i name="e_0_energy">   -303.59967851 </i>
   </energy>
  </scstep>
  <scstep>
   <time name="dav">   25.76   25.79</time>
   <time name="total">   25.83   25.86</time>
   <energy>
    <i name="alphaZ">   1153.76813855 </i>
    <i name="ewald"> -11124.90400229 </i>
    <i name="hartreedc">  -3052.34212184 </i>
    <i name="XCdc">   -823.42079322 </i>
    <i name="pawpsdc">  18371.84366897 </i>
    <i name="pawaedc"> -16933.97513650 </i>
    <i name="eentropy">     -0.02369740 </i>
    <i name="bandstr">   -769.72733506 </i>
    <i name="atom">  12875.17371654 </i>
    <i name="e_fr_energy">   -303.60756226 </i>
    <i name="e_wo_entrp">   -303.58386486 </i>
    <i name="e_0_energy">   -303.59966313 </i>
   </energy>
  </scstep>
  <structure>
   <crystal>
    <varray name="basis" >
     <v>      -3.16000000      -3.16000000      -3.16000000 </v>
     <v>       1.58000000       1.58000000      -7.90000000 </v>
     <v>       7.90000000      -7.90000000      -1.58000000 </v>
    </varray>
    <i name="volume">    473.31744000 </i>
    <varray name="rec_basis" >
     <v>      -0.13713080      -0.12658228      -0.05274262 </v>
     <v>       0.04219409       0.06329114      -0.10548523 </v>
     <v>       0.06329114      -0.06329114       0.00000000 </v>
    </varray>
   </crystal>
   <varray name="positions" >
    <v>       0.96666667       0.93333333       0.40000000 </v>
    <v>       0.63333333       0.26666667       0.40000000 </v>
    <v>       0.50000000       0.00000000       0.00000000 </v>
    <v>       0.00000000       0.00000000       0.00000000 </v>
    <v>       0.10000000       0.20000000       0.80000000 </v>
    <v>       0.03333333       0.06666667       0.60000000 </v>
    <v>       0.90000000       0.80000000       0.20000000 </v>
    <v>       0.80000000       0.60000000       0.40000000 </v>
    <v>       0.73333333       0.46666667       0.20000000 </v>
    <v>       0.66666667       0.33333333       0.00000000 </v>
    <v>       0.36666667       0.73333333       0.60000000 </v>
    <v>       0.13333333       0.26666667       0.40000000 </v>
    <v>       0.83333333       0.66666667       0.00000000 </v>
    <v>       0.56666667       0.13333333       0.20000000 </v>
    <v>       0.40000000       0.80000000       0.20000000 </v>
    <v>       0.43333333       0.86666667       0.80000000 </v>
    <v>       0.30000000       0.60000000       0.40000000 </v>
    <v>       0.86666667       0.73333333       0.60000000 </v>
    <v>       0.46666667       0.93333333       0.40000000 </v>
    <v>       0.16666667       0.33333333       0.00000000 </v>
    <v>       0.26666667       0.53333333       0.80000000 </v>
    <v>       0.20000000       0.40000000       0.60000000 </v>
    <v>       0.06666667       0.13333333       0.20000000 </v>
    <v>       0.76666667       0.53333333       0.80000000 </v>
    <v>       0.70000000       0.40000000       0.60000000 </v>
    <v>       0.60000000       0.20000000       0.80000000 </v>
    <v>       0.53333333       0.06666667       0.60000000 </v>
    <v>       0.33333333       0.66666667       0.00000000 </v>
    <v>       0.23333333       0.46666667       0.20000000 </v>
   </varray>
  </structure>
  <varray name="forces" >
   <v>       0.22681778       0.30390789       0.20740314 </v>
   <v>       0.34446019      -0.25901584       0.01828447 </v>
   <v>      -0.01627056       0.41910623      -0.13122730 </v>
   <v>      -0.42446515       0.41955472       0.51000285 </v>
   <v>      -0.15051214       0.66332376      -0.81890110 </v>
   <v>       0.21509345      -0.40596170       0.05166140 </v>
   <v>      -0.14377711      -0.53363875       0.21195236 </v>
   <v>      -0.53032428      -0.34256307       0.49811858 </v>
   <v>      -0.14237892       0.15633903       0.12643838 </v>
   <v>       0.11317434       0.62786758      -0.65148337 </v>
   <v>      -0.44666423      -0.59507921       0.07141182 </v>
   <v>      -0.02218991       0.32773095      -0.66967854 </v>
   <v>      -0.36605424       0.24544557      -0.06738426 </v>
   <v>      -0.46115396       0.52595919      -0.09358910 </v>
   <v>      -0.85799878       0.11094363       0.73681288 </v>
   <v>      -0.74209071      -0.13831658       0.59301492 </v>
   <v>       0.49237653      -0.33471139      -0.20013055 </v>
   <v>       0.50260067      -0.01171025       0.24159269 </v>
   <v>       0.71478571      -0.63595131       0.12581020 </v>
   <v>      -0.12571305      -0.08019970      -0.36339894 </v>
   <v>      -0.04936059       0.15422196      -0.81423571 </v>
   <v>      -0.07276002      -0.26591920       0.52199938 </v>
   <v>       0.79830753      -0.19783963      -0.94821077 </v>
   <v>       0.18460185      -0.26740305       1.32217259 </v>
   <v>       0.67944114       0.00703935      -0.33292519 </v>
   <v>       0.08471501       0.43491739      -0.13114024 </v>
   <v>       0.31885478       0.10808822      -0.42059573 </v>
   <v>      -0.38117352      -0.73691333       0.52203422 </v>
   <v>       0.25765819       0.30077754      -0.11580909 </v>
  </varray>
  <varray name="stress" >
   <v>     -31.39119211      -1.56626344       0.10283217 </v>
   <v>      -1.56626341     -24.38440797      -1.42251161 </v>
   <v>       0.10283220      -1.42251164     -25.43225980 </v>
  </varray>
  <energy>
   <i name="e_fr_energy">   -303.60756226 </i>
   <i name="e_wo_entrp">   -303.59966313 </i>
   <i name="e_0_energy">     -0.02369740 </i>
  </energy>
  <time name="totalsc"> 2237.38 2240.31</time>
 </calculation>
 <calculation>
  <scstep>
   <time name="dav">   35.20   35.25</time>
   <time name="total">   35.85   35.90</time>
   <energy>
    <i name="alphaZ">   1201.07253519 </i>
    <i name="ewald"> -11320.29130307 </i>
    <i name="hartreedc">  -3050.57429580 </i>
    <i name="XCdc">   -818.19743068 </i>
    <i name="pawpsdc">  18371.22299574 </i>
    <i name="pawaedc"> -16933.35514929 </i>
    <i name="eentropy">     -0.01457572 </i>
    <i name="bandstr">   -630.08871797 </i>
    <i name="atom">  12875.17371654 </i>
    <i name="e_fr_energy">   -305.05222507 </i>
    <i name="e_wo_entrp">   -305.03764934 </i>
    <i name="e_0_energy">   -305.04736649 </i>
   </energy>
  </scstep>
  <scstep>
   <time name="dav">   52.38   52.44</time>
   <time name="total">   53.03   53.10</time>
   <energy>
    <i name="e_fr_energy">   -306.86387998 </i>
    <i name="e_wo_entrp">   -306.86682538 </i>
    <i name="e_0_energy">   -306.86486178 </i>
   </energy>
  </scstep>
  <scstep>
   <time name="dav">   50.95   51.01</time>
   <time name="total">   51.60   51.67</time>
   <energy>
    <i name="e_fr_energy">   -305.43154355 </i>
    <i name="e_wo_entrp">   -305.41795478 </i>
    <i name="e_0_energy">   -305.42701396 </i>
   </energy>
  </scstep>
  <scstep>
   <time name="dav">   47.35   47.41</time>
   <time name="total">   48.01   48.07</time>
   <energy>
    <i name="e_fr_energy">   -304.94459754 </i>
    <i name="e_wo_entrp">   -304.92834304 </i>
    <i name="e_0_energy">   -304.93917937 </i>
   </energy>
  </scstep>
  <scstep>
   <time name="dav">   50.97   51.03</time>
   <time name="total">   51.64   51.72</time>
   <energy>
    <i name="e_fr_energy">   -304.46613379 </i>
    <i name="e_wo_entrp">   -304.45388946 </i>
    <i name="e_0_energy">   -304.46205235 </i>
   </energy>
  </scstep>
  <scstep>
   <time name="dav">   51.97   52.03</time>
   <time name="total">   52.62   52.68</time>
   <energy>
    <i name="e_fr_energy">   -304.31185955 </i>
    <i name="e_wo_entrp">   -304.30339789 </i>
    <i name="e_0_energy">   -304.30903899 </i>
   </energy>
  </scstep>
  <scstep>
   <time name="dav">   50.70   50.76</time>
   <time name="total">   51.36   51.43</time>
   <energy>
    <i name="e_fr_energy">   -304.24301975 </i>
    <i name="e_wo_entrp">   -304.22649027 </i>
    <i name="e_0_energy">   -304.23750992 </i>
   </energy>
  </scstep>
  <scstep>
   <time name="dav">   53.48   53.54</time>
   <time name="total">   54.13   54.20</time>
   <energy>
    <i name="e_fr_energy">   -304.19904153 </i>
    <i name="e_wo_entrp">   -304.18173264 </i>
    <i name="e_0_energy">   -304.19327190 </i>
   </energy>
  </scstep>
  <scstep>
   <time name="dav">   51.87   51.93</time>
   <time name="total">   52.52   52.59</time>
   <energy>
    <i name="e_fr_energy">   -304.17222766 </i>
    <i name="e_wo_entrp">   -304.15542543 </i>
    <i name="e_0_energy">   -304.16662692 </i>
   </energy>
  </scstep>
  <scstep>
   <time name="dav">   49.83   49.89</time>
   <time name="total">   50.49   50.55</time>
   <energy>
    <i name="e_fr_energy">   -304.16988445 </i>
    <i name="e_wo_entrp">   -304.15233257 </i>
    <i name="e_0_energy">   -304.16403382 </i>
   </energy>
  </scstep>
  <scstep>
   <time name="dav">   47.55   47.61</time>
   <time name="total">   48.21   48.28</time>
   <energy>
    <i name="e_fr_energy">   -304.17404025 </i>
    <i name="e_wo_entrp">   -304.15746783 </i>
    <i name="e_0_energy">   -304.16851611 </i>
   </energy>
  </scstep>
  <scstep>
   <time name="dav">   48.53   48.59</time>
   <time name="total">   49.20   49.25</time>
   <energy>
    <i name="e_fr_energy">   -304.17629615 </i>
    <i name="e_wo_entrp">   -304.15885470 </i>
    <i name="e_0_energy">   -304.17048233 </i>
   </energy>
  </scstep>
  <scstep>
   <time name="dav">   49.67   49.73</time>
   <time name="total">   50.33   50.39</time>
   <energy>
    <i name="e_fr_energy">   -304.17768266 </i>
    <i name="e_wo_entrp">   -304.16056643 </i>
    <i name="e_0_energy">   -304.17197725 </i>
   </energy>
  </scstep>
  <scstep>
   <time name="dav">   48.37   48.42</time>
   <time name="total">   49.02   49.07</time>
   <energy>
    <i name="e_fr_energy">   -304.17736359 </i>
    <i name="e_wo_entrp">   -304.15982604 </i>
    <i name="e_0_energy">   -304.17151774 </i>
   </energy>
  </scstep>
  <scstep>
   <time name="dav">   48.81   48.87</time>
   <time name="total">   49.48   49.54</time>
   <energy>
    <i name="e_fr_energy">   -304.17641958 </i>
    <i name="e_wo_entrp">   -304.15910405 </i>
    <i name="e_0_energy">   -304.17064774 </i>
   </energy>
  </scstep>
  <scstep>
   <time name="dav">   44.59   44.65</time>
   <time name="total">   45.24   45.31</time>
   <energy>
    <i name="e_fr_energy">   -304.17629950 </i>
    <i name="e_wo_entrp">   -304.15900586 </i>
    <i name="e_0_energy">   -304.17053496 </i>
   </energy>
  </scstep>
  <scstep>
   <time name="dav">   38.20   38.25</time>
   <time name="total">   38.27   38.33</time>
   <energy>
    <i name="alphaZ">   1201.07253519 </i>
    <i name="ewald"> -11320.29130307 </i>
    <i name="hartreedc">  -2974.14455815 </i>
    <i name="XCdc">   -820.62612045 </i>
    <i name="pawpsdc">  19303.10827436 </i>
    <i name="pawaedc"> -17866.44680097 </i>
    <i name="eentropy">     -0.01733857 </i>
    <i name="bandstr">   -702.00464773 </i>
    <i name="atom">  12875.17371654 </i>
    <i name="e_fr_energy">   -304.17624285 </i>
    <i name="e_wo_entrp">   -304.15890428 </i>
    <i name="e_0_energy">   -304.17046332 </i>
   </energy>
  </scstep>
  <structure>
   <crystal>
    <varray name="basis" >
     <v>      -3.10897786      -3.11749035      -3.11845512 </v>
     <v>       1.55400984       1.56537252      -7.80228606 </v>
     <v>       7.78412733      -7.81030588      -1.55433025 </v>
    </varray>
    <i name="volume">    454.67577160 </i>
    <varray name="rec_basis" >
     <v>      -0.13937700      -0.12826402      -0.05349384 </v>
     <v>       0.04291075       0.06401667      -0.10677721 </v>
     <v>       0.06423279      -0.06400879      -0.00004860 </v>
    </varray>
   </crystal>
   <varray name="positions" >
    <v>       0.96278256       0.93366751       0.39976462 </v>
    <v>       0.63258973       0.26648393       0.40184261 </v>
    <v>       0.49788220       0.00191435      -0.00132935 </v>
    <v>      -0.00105168      -0.00217833      -0.00257707 </v>
    <v>       0.09902867       0.20588627       0.79751509 </v>
    <v>       0.03425799       0.06560207       0.60189629 </v>
    <v>       0.90367062       0.79699936       0.20119038 </v>
    <v>       0.80433287       0.59533967       0.39942670 </v>
    <v>       0.73299882       0.46621077       0.19908791 </v>
    <v>       0.66374144       0.33879612      -0.00157153 </v>
    <v>       0.37307385       0.73024374       0.60045316 </v>
    <v>       0.13318274       0.27103009       0.39893158 </v>
    <v>       0.83442758       0.66701388      -0.00186711 </v>
    <v>       0.56674373       0.13447682       0.19698602 </v>
    <v>       0.40312386       0.79484269       0.19704150 </v>
    <v>       0.43757843       0.86171599       0.79815648 </v>
    <v>       0.29929585       0.60099872       0.40252537 </v>
    <v>       0.86279848       0.73309121       0.60157036 </v>
    <v>       0.46550139       0.93220631       0.40412425 </v>
    <v>       0.16891273       0.33468185      -0.00013897 </v>
    <v>       0.26812321       0.53784730       0.79937839 </v>
    <v>       0.20077703       0.39638356       0.60058978 </v>
    <v>       0.06500623       0.13917960       0.20304157 </v>
    <v>       0.76371417       0.52616424       0.80138012 </v>
    <v>       0.69630924       0.40309875       0.60205307 </v>
    <v>       0.59711735       0.20216775       0.79893072 </v>
    <v>       0.53163405       0.06978611       0.60064354 </v>
    <v>       0.33902680       0.66098416       0.00108619 </v>
    <v>       0.23008670       0.46869886       0.19986834 </v>
   </varray>
  </structure>
  <varray name="forces" >
   <v>       0.27151144       0.12100501       0.04405645 </v>
   <v>       0.16103369      -0.21232479       0.06754701 </v>
   <v>      -0.23653889       0.41434998       0.01623374 </v>
   <v>      -0.47042838       0.42522983       0.33675735 </v>
   <v>      -0.06543540       0.35748434      -0.37396221 </v>
   <v>       0.34634176      -0.35926611       0.22058183 </v>
   <v>      -0.19592779      -0.16876803       0.15447704 </v>
   <v>      -0.13467171      -0.23014776       0.18107203 </v>
   <v>      -0.10157400       0.03621374       0.14793548 </v>
   <v>      -0.02891015       0.50871436      -0.34641875 </v>
   <v>      -0.15467715      -0.42336250       0.11684502 </v>
   <v>       0.05974563       0.09436865      -0.25363855 </v>
   <v>      -0.62100818       0.28078223      -0.29495588 </v>
   <v>      -0.18473623       0.19848586      -0.04987675 </v>
   <v>      -0.27561432       0.01317537       0.17123606 </v>
   <v>      -0.43037301      -0.15788203       0.25441217 </v>
   <v>       0.23745046      -0.31841935      -0.09417584 </v>
   <v>       0.46592298      -0.24144346       0.09186346 </v>
   <v>       0.36219520      -0.31468980       0.09296810 </v>
   <v>      -0.09846745      -0.03371474      -0.31411408 </v>
   <v>       0.15623929       0.30000916      -0.59397343 </v>
   <v>      -0.00313142      -0.16854656       0.33039151 </v>
   <v>       0.39869145      -0.05676355      -0.57475195 </v>
   <v>       0.05904196      -0.20560341       0.92438932 </v>
   <v>       0.60583092      -0.05888393      -0.19046227 </v>
   <v>      -0.05088719       0.38064638      -0.18269117 </v>
   <v>       0.21590281      -0.03528287      -0.34494975 </v>
   <v>      -0.36021022      -0.40998688       0.55005626 </v>
   <v>       0.07268391       0.26462086      -0.08685223 </v>
  </varray>
  <varray name="stress" >
   <v>      44.38052834      -0.88495660       0.60200991 </v>
   <v>      -0.88495663      47.69789091       0.27521049 </v>
   <v>       0.60201001       0.27521049      48.71027584 </v>
  </varray>
  <energy>
   <i name="e_fr_energy">   -304.17624285 </i>
   <i name="e_wo_entrp">   -304.17046332 </i>
   <i name="e_0_energy">     -0.01733857 </i>
  </energy>
  <time name="totalsc">  850.95  852.06</time>
 </calculation>
 <calculation>
  <scstep>
   <time name="dav">   38.63   38.68</time>
   <time name="total">   39.28   39.34</time>
   <energy>
    <i name="alphaZ">   1199.84281802 </i>
    <i name="ewald"> -11315.37423735 </i>
    <i name="hartreedc">  -2974.30940144 </i>
    <i name="XCdc">   -820.75239897 </i>
    <i name="pawpsdc">  19301.95895812 </i>
    <i name="pawaedc"> -17865.16603983 </i>
    <i name="eentropy">     -0.01760067 </i>
    <i name="bandstr">   -705.53341296 </i>
    <i name="atom">  12875.17371654 </i>
    <i name="e_fr_energy">   -304.17759854 </i>
    <i name="e_wo_entrp">   -304.15999787 </i>
    <i name="e_0_energy">   -304.17173165 </i>
   </energy>
  </scstep>
  <scstep>
   <time name="dav">   52.45   52.53</time>
   <time name="total">   53.11   53.20</time>
   <energy>
    <i name="e_fr_energy">   -304.17922802 </i>
    <i name="e_wo_entrp">   -304.16140556 </i>
    <i name="e_0_energy">   -304.17328720 </i>
   </energy>
  </scstep>
  <scstep>
   <time name="dav">   51.49   51.56</time>
   <time name="total">   52.14   52.22</time>
   <energy>
    <i name="e_fr_energy">   -304.17772929 </i>
    <i name="e_wo_entrp">   -304.16013210 </i>
    <i name="e_0_energy">   -304.17186356 </i>
   </energy>
  </scstep>
  <scstep>
   <time name="dav">   46.61   46.68</time>
   <time name="total">   47.27   47.35</time>
   <energy>
    <i name="e_fr_energy">   -304.17729981 </i>
    <i name="e_wo_entrp">   -304.15995410 </i>
    <i name="e_0_energy">   -304.17151791 </i>
   </energy>
  </scstep>
  <scstep>
   <time name="dav">   45.83   45.90</time>
   <time name="total">   46.49   46.55</time>
   <energy>
    <i name="e_fr_energy">   -304.17706688 </i>
    <i name="e_wo_entrp">   -304.15947987 </i>
    <i name="e_0_energy">   -304.17120455 </i>
   </energy>
  </scstep>
  <scstep>
   <time name="dav">   45.21   45.28</time>
   <time name="total">   45.87   45.95</time>
   <energy>
    <i name="e_fr_energy">   -304.17685972 </i>
    <i name="e_wo_entrp">   -304.15924312 </i>
    <i name="e_0_energy">   -304.17098752 </i>
   </energy>
  </scstep>
  <scstep>
   <time name="dav">   41.36   41.42</time>
   <time name="total">   42.01   42.07</time>
   <energy>
    <i name="e_fr_energy">   -304.17682042 </i>
    <i name="e_wo_entrp">   -304.15934298 </i>
    <i name="e_0_energy">   -304.17099461 </i>
   </energy>
  </scstep>
  <scstep>
   <time name="dav">   35.64   35.69</time>
   <time name="total">   35.72   35.78</time>
   <energy>
    <i name="alphaZ">   1199.84281802 </i>
    <i name="ewald"> -11315.37423735 </i>
    <i name="hartreedc">  -2976.62344568 </i>
    <i name="XCdc">   -820.67429505 </i>
    <i name="pawpsdc">  19272.47025516 </i>
    <i name="pawaedc"> -17835.38219767 </i>
    <i name="eentropy">     -0.01750848 </i>
    <i name="bandstr">   -703.59187473 </i>
    <i name="atom">  12875.17371654 </i>
    <i name="e_fr_energy">   -304.17676925 </i>
    <i name="e_wo_entrp">   -304.15926077 </i>
    <i name="e_0_energy">   -304.17093309 </i>
   </energy>
  </scstep>
  <structure>
   <crystal>
    <varray name="basis" >
     <v>      -3.11026997      -3.11856689      -3.11950723 </v>
     <v>       1.55466803       1.56574295      -7.80476063 </v>
     <v>       7.78706177      -7.81257735      -1.55498033 </v>
    </varray>
    <i name="volume">    455.14176815 </i>
    <varray name="rec_basis" >
     <v>      -0.13931922      -0.12822087      -0.05347455 </v>
     <v>       0.04289231       0.06399809      -0.10674410 </v>
     <v>       0.06420860      -0.06399042      -0.00004734 </v>
    </varray>
   </crystal>
   <varray name="positions" >
    <v>       0.96288236       0.93365891       0.39977060 </v>
    <v>       0.63260900       0.26648851       0.40179533 </v>
    <v>       0.49793653       0.00186531      -0.00129531 </v>
    <v>      -0.00102488      -0.00212236      -0.00251092 </v>
    <v>       0.09905347       0.20573545       0.79757872 </v>
    <v>       0.03423438       0.06562928       0.60184766 </v>
    <v>       0.90357636       0.79707628       0.20115994 </v>
    <v>       0.80422144       0.59545924       0.39944156 </v>
    <v>       0.73300734       0.46622251       0.19911132 </v>
    <v>       0.66381653       0.33865609      -0.00153135 </v>
    <v>       0.37290921       0.73032301       0.60044168 </v>
    <v>       0.13318656       0.27091826       0.39895891 </v>
    <v>       0.83439931       0.66700509      -0.00181920 </v>
    <v>       0.56674151       0.13444765       0.19706333 </v>
    <v>       0.40304330       0.79497511       0.19711755 </v>
    <v>       0.43746915       0.86184307       0.79820393 </v>
    <v>       0.29931416       0.60097297       0.40246055 </v>
    <v>       0.86289802       0.73309729       0.60153002 </v>
    <v>       0.46553167       0.93223499       0.40401843 </v>
    <v>       0.16885501       0.33464731      -0.00013540 </v>
    <v>       0.26808576       0.53773161       0.79939428 </v>
    <v>       0.20075708       0.39647627       0.60057472 </v>
    <v>       0.06504920       0.13902952       0.20296339 </v>
    <v>       0.76379012       0.52634796       0.80134480 </v>
    <v>       0.69640428       0.40301915       0.60200028 </v>
    <v>       0.59719136       0.20211218       0.79895807 </v>
    <v>       0.53167780       0.06970607       0.60062695 </v>
    <v>       0.33888053       0.66112987       0.00105851 </v>
    <v>       0.23017014       0.46864672       0.19987164 </v>
   </varray>
  </structure>
  <varray name="forces" >
   <v>       0.26979437       0.12566436       0.05461948 </v>
   <v>       0.16721221      -0.21106701       0.06786299 </v>
   <v>      -0.23233322       0.41079006       0.01672558 </v>
   <v>      -0.46683675       0.42141194       0.34505006 </v>
   <v>      -0.06926820       0.36652265      -0.38654419 </v>
   <v>       0.34083701      -0.35998425       0.21762295 </v>
   <v>      -0.19675560      -0.18042196       0.15845962 </v>
   <v>      -0.14431772      -0.23531952       0.19115347 </v>
   <v>      -0.10280502       0.04323393       0.14597083 </v>
   <v>      -0.02147251       0.51199942      -0.35800255 </v>
   <v>      -0.16643415      -0.42972074       0.11496807 </v>
   <v>       0.05556394       0.10196382      -0.26914102 </v>
   <v>      -0.61340481       0.28572944      -0.28654071 </v>
   <v>      -0.18552449       0.20770381      -0.05173812 </v>
   <v>      -0.28576960       0.01274920       0.19236092 </v>
   <v>      -0.44494979      -0.16028475       0.26480510 </v>
   <v>       0.24349897      -0.32256449      -0.09919080 </v>
   <v>       0.46842488      -0.23292313       0.09719549 </v>
   <v>       0.37073051      -0.32638804       0.09320132 </v>
   <v>      -0.09316522      -0.03696373      -0.32103570 </v>
   <v>       0.14781164       0.30231997      -0.60823357 </v>
   <v>      -0.00771423      -0.16936603       0.33518034 </v>
   <v>       0.41307495      -0.05901542      -0.58631063 </v>
   <v>       0.06387440      -0.20397030       0.93432128 </v>
   <v>       0.60807651      -0.05477720      -0.19777001 </v>
   <v>      -0.05328229       0.38557313      -0.18215138 </v>
   <v>       0.21574672      -0.03208709      -0.34253891 </v>
   <v>      -0.35910410      -0.42369288       0.55014478 </v>
   <v>       0.07849159       0.26288481      -0.09044469 </v>
  </varray>
  <varray name="stress" >
   <v>      42.61489303      -0.96752393       0.70377468 </v>
   <v>      -0.96752391      46.15581079       0.47344159 </v>
   <v>       0.70377462       0.47344156      46.89450699 </v>
  </varray>
  <energy>
   <i name="e_fr_energy">   -304.17676925 </i>
   <i name="e_wo_entrp">   -304.17093309 </i>
   <i name="e_0_energy">     -0.01750848 </i>
  </energy>
  <time name="totalsc">  381.84  382.44</time>
 </calculation>
 <calculation>
  <scstep>
   <time name="dav">   33.36   33.41</time>
   <time name="total">   34.03   34.09</time>
   <energy>
    <i name="alphaZ">   1187.82747287 </i>
    <i name="ewald"> -11308.25890109 </i>
    <i name="hartreedc">  -2936.91858864 </i>
    <i name="XCdc">   -822.11244355 </i>
    <i name="pawpsdc">  19273.01113937 </i>
    <i name="pawaedc"> -17835.93933926 </i>
    <i name="eentropy">     -0.01186726 </i>
    <i name="bandstr">   -737.14656151 </i>
    <i name="atom">  12875.17371654 </i>
    <i name="e_fr_energy">   -304.37537255 </i>
    <i name="e_wo_entrp">   -304.36350528 </i>
    <i name="e_0_energy">   -304.37141679 </i>
   </energy>
  </scstep>
  <scstep>
   <time name="dav">   50.15   50.23</time>
   <time name="total">   50.81   50.89</time>
   <energy>
    <i name="e_fr_energy">   -305.10482275 </i>
    <i name="e_wo_entrp">   -305.09504866 </i>
    <i name="e_0_energy">   -305.10156472 </i>
   </energy>
  </scstep>
  <scstep>
   <time name="dav">   51.24   51.31</time>
   <time name="total">   51.89   51.97</time>
   <energy>
    <i name="e_fr_energy">   -304.66364496 </i>
    <i name="e_wo_entrp">   -304.65476529 </i>
    <i name="e_0_energy">   -304.66068507 </i>
   </energy>
  </scstep>
  <scstep>
   <time name="dav">   49.90   49.97</time>
   <time name="total">   50.54   50.63</time>
   <energy>
    <i name="e_fr_energy">   -304.69710095 </i>
    <i name="e_wo_entrp">   -304.68577132 </i>
    <i name="e_0_energy">   -304.69332441 </i>
   </energy>
  </scstep>
  <scstep>
   <time name="dav">   48.35   48.42</time>
   <time name="total">   49.00   49.07</time>
   <energy>
    <i name="e_fr_energy">   -304.60090349 </i>
    <i name="e_wo_entrp">   -304.59137240 </i>
    <i name="e_0_energy">   -304.59772646 </i>
   </energy>
  </scstep>
  <scstep>
   <time name="dav">   51.22   51.30</time>
   <time name="total">   51.89   51.97</time>
   <energy>
    <i name="e_fr_energy">   -304.60321403 </i>
    <i name="e_wo_entrp">   -304.59379121 </i>
    <i name="e_0_energy">   -304.60007309 </i>
   </energy>
  </scstep>
  <scstep>
   <time name="dav">   48.77   48.82</time>
   <time name="total">   49.40   49.48</time>
   <energy>
    <i name="e_fr_energy">   -304.59310111 </i>
    <i name="e_wo_entrp">   -304.58252646 </i>
    <i name="e_0_energy">   -304.58957623 </i>
   </energy>
  </scstep>
  <scstep>
   <time name="dav">   51.06   51.12</time>
   <time name="total">   51.73   51.79</time>
   <energy>
    <i name="e_fr_energy">   -304.58231032 </i>
    <i name="e_wo_entrp">   -304.57226106 </i>
    <i name="e_0_energy">   -304.57896057 </i>
   </energy>
  </scstep>
  <scstep>
   <time name="dav">   51.44   51.50</time>
   <time name="total">   52.09   52.15</time>
   <energy>
    <i name="e_fr_energy">   -304.58078353 </i>
    <i name="e_wo_entrp">   -304.57063119 </i>
    <i name="e_0_energy">   -304.57739942 </i>
   </energy>
  </scstep>
  <scstep>
   <time name="dav">   43.58   43.63</time>
   <time name="total">   44.25   44.31</time>
   <energy>
    <i name="e_fr_energy">   -304.58050852 </i>
    <i name="e_wo_entrp">   -304.57022520 </i>
    <i name="e_0_energy">   -304.57708075 </i>
   </energy>
  </scstep>
  <scstep>
   <time name="dav">   44.75   44.80</time>
   <time name="total">   45.40   45.45</time>
   <energy>
    <i name="e_fr_energy">   -304.58032860 </i>
    <i name="e_wo_entrp">   -304.56993469 </i>
    <i name="e_0_energy">   -304.57686397 </i>
   </energy>
  </scstep>
  <scstep>
   <time name="dav">   44.93   44.98</time>
   <time name="total">   45.59   45.65</time>
   <energy>
    <i name="e_fr_energy">   -304.58041659 </i>
    <i name="e_wo_entrp">   -304.57025940 </i>
    <i name="e_0_energy">   -304.57703086 </i>
   </energy>
  </scstep>
  <scstep>
   <time name="dav">   46.05   46.10</time>
   <time name="total">   46.70   46.76</time>
   <energy>
    <i name="e_fr_energy">   -304.58061702 </i>
    <i name="e_wo_entrp">   -304.57035016 </i>
    <i name="e_0_energy">   -304.57719474 </i>
   </energy>
  </scstep>
  <scstep>
   <time name="dav">   43.76   43.81</time>
   <time name="total">   44.42   44.48</time>
   <energy>
    <i name="e_fr_energy">   -304.58047189 </i>
    <i name="e_wo_entrp">   -304.57013491 </i>
    <i name="e_0_energy">   -304.57702623 </i>
   </energy>
  </scstep>
  <scstep>
   <time name="dav">   40.36   40.40</time>
   <time name="total">   41.01   41.06</time>
   <energy>
    <i name="e_fr_energy">   -304.58035941 </i>
    <i name="e_wo_entrp">   -304.57007413 </i>
    <i name="e_0_energy">   -304.57693098 </i>
   </energy>
  </scstep>
  <scstep>
   <time name="dav">   26.50   26.53</time>
   <time name="total">   26.59   26.63</time>
   <energy>
    <i name="alphaZ">   1187.82747287 </i>
    <i name="ewald"> -11308.25890109 </i>
[...]
       <r>    4.8022    1.0000 </r>
       <r>    4.8338    1.0000 </r>
       <r>    4.8733    1.0000 </r>
       <r>    4.9698    1.0000 </r>
       <r>    4.9920    1.0000 </r>
       <r>    5.0372    1.0000 </r>
       <r>    5.0827    1.0000 </r>
       <r>    5.1210    1.0000 </r>
       <r>    5.1724    1.0000 </r>
       <r>    5.2043    1.0000 </r>
       <r>    5.3190    1.0000 </r>
       <r>    5.3794    1.0000 </r>
       <r>    5.4425    1.0000 </r>
       <r>    5.4707    1.0000 </r>
       <r>    5.5517    1.0000 </r>
       <r>    5.6029    1.0000 </r>
       <r>    5.6746    1.0000 </r>
       <r>    5.7137    1.0000 </r>
       <r>    5.7689    1.0000 </r>
       <r>    5.8167    1.0000 </r>
       <r>    5.8832    1.0000 </r>
       <r>    5.9123    1.0000 </r>
       <r>    6.0120    1.0000 </r>
       <r>    6.0381    1.0001 </r>
       <r>    6.1057    1.0004 </r>
       <r>    6.1359    1.0009 </r>
       <r>    6.2044    1.0037 </r>
       <r>    6.2492    1.0080 </r>
       <r>    6.3174    1.0205 </r>
       <r>    6.3326    1.0240 </r>
       <r>    6.4157    1.0349 </r>
       <r>    6.4403    1.0290 </r>
       <r>    6.4903    0.9881 </r>
       <r>    6.5155    0.9476 </r>
       <r>    6.5651    0.8222 </r>
       <r>    6.6000    0.6999 </r>
       <r>    6.6268    0.5925 </r>
       <r>    6.6888    0.3342 </r>
       <r>    6.7897    0.0386 </r>
       <r>    6.8437   -0.0223 </r>
       <r>    6.9177   -0.0336 </r>
       <r>    6.9873   -0.0189 </r>
       <r>    7.0626   -0.0064 </r>
       <r>    7.2310   -0.0002 </r>
       <r>    7.3178   -0.0000 </r>
       <r>    7.4346   -0.0000 </r>
       <r>    7.4833   -0.0000 </r>
       <r>    7.5774   -0.0000 </r>
       <r>    7.7242   -0.0000 </r>
       <r>    7.8619   -0.0000 </r>
       <r>    8.0327   -0.0000 </r>
       <r>    8.1501   -0.0000 </r>
       <r>    8.2313   -0.0000 </r>
       <r>    8.3248   -0.0000 </r>
       <r>    8.3729   -0.0000 </r>
       <r>    8.5081   -0.0000 </r>
       <r>    8.5572   -0.0000 </r>
       <r>    8.6781   -0.0000 </r>
       <r>    8.7036   -0.0000 </r>
       <r>    8.7260   -0.0000 </r>
       <r>    8.8050   -0.0000 </r>
      </set>
     </set>
    </set>
   </array>
  </eigenvalues>
  <separator name="orbital magnetization" >
   <v name="MAGDIPOLOUT">      0.00000000      0.00000000      0.00000000</v>
  </separator>
  <dos>
   <i name="efermi">      6.64879008 </i>
   <total>
    <array>
     <dimension dim="1">gridpoints</dimension>
     <dimension dim="2">spin</dimension>
     <field>energy</field>
     <field>total</field>
     <field>integrated</field>
     <set>
      <set comment="spin 1">
       <r>   -50.4239     0.0000     0.0000 </r>
       <r>   -50.2168     0.0000     0.0000 </r>
       <r>   -50.0097     0.0000     0.0000 </r>
       <r>   -49.8027     0.0000     0.0000 </r>
       <r>   -49.5956     0.0000     0.0000 </r>
       <r>   -49.3885    -0.0000    -0.0000 </r>
       <r>   -49.1815    -0.0000    -0.0000 </r>
       <r>   -48.9744    -0.0000    -0.0000 </r>
       <r>   -48.7673    -0.0000    -0.0000 </r>
       <r>   -48.5603    -0.0000    -0.0000 </r>
       <r>   -48.3532    -0.0000    -0.0000 </r>
       <r>   -48.1461    -0.0035    -0.0007 </r>
       <r>   -47.9391    -0.2066    -0.0435 </r>
       <r>   -47.7320     0.2522     0.0087 </r>
       <r>   -47.5249    10.8418     2.2537 </r>
       <r>   -47.3179    12.2973     4.8000 </r>
       <r>   -47.1108    20.3535     9.0145 </r>
       <r>   -46.9038    14.8703    12.0936 </r>
       <r>   -46.6967    -0.2202    12.0480 </r>
       <r>   -46.4896    -0.2290    12.0006 </r>
       <r>   -46.2826    -0.0030    12.0000 </r>
       <r>   -46.0755    -0.0000    12.0000 </r>
       <r>   -45.8684    -0.0000    12.0000 </r>
       <r>   -45.6614    -0.0000    12.0000 </r>
       <r>   -45.4543     0.0000    12.0000 </r>
       <r>   -45.2472     0.0000    12.0000 </r>
       <r>   -45.0402     0.0000    12.0000 </r>
       <r>   -44.8331     0.0000    12.0000 </r>
       <r>   -44.6260     0.0000    12.0000 </r>
       <r>   -44.4190     0.0000    12.0000 </r>
       <r>   -44.2119     0.0000    12.0000 </r>
       <r>   -44.0048     0.0000    12.0000 </r>
       <r>   -43.7978     0.0000    12.0000 </r>
       <r>   -43.5907     0.0000    12.0000 </r>
       <r>   -43.3836     0.0000    12.0000 </r>
       <r>   -43.1766     0.0000    12.0000 </r>
       <r>   -42.9695     0.0000    12.0000 </r>
       <r>   -42.7625     0.0000    12.0000 </r>
       <r>   -42.5554     0.0000    12.0000 </r>
       <r>   -42.3483     0.0000    12.0000 </r>
       <r>   -42.1413     0.0000    12.0000 </r>
       <r>   -41.9342     0.0000    12.0000 </r>
       <r>   -41.7271     0.0000    12.0000 </r>
       <r>   -41.5201     0.0000    12.0000 </r>
       <r>   -41.3130     0.0000    12.0000 </r>
       <r>   -41.1059     0.0000    12.0000 </r>
       <r>   -40.8989     0.0000    12.0000 </r>
       <r>   -40.6918     0.0000    12.0000 </r>
       <r>   -40.4847     0.0000    12.0000 </r>
       <r>   -40.2777     0.0000    12.0000 </r>
       <r>   -40.0706     0.0000    12.0000 </r>
       <r>   -39.8635     0.0000    12.0000 </r>
       <r>   -39.6565     0.0000    12.0000 </r>
       <r>   -39.4494     0.0000    12.0000 </r>
       <r>   -39.2423     0.0000    12.0000 </r>
       <r>   -39.0353     0.0000    12.0000 </r>
       <r>   -38.8282     0.0000    12.0000 </r>
       <r>   -38.6212     0.0000    12.0000 </r>
       <r>   -38.4141     0.0000    12.0000 </r>
       <r>   -38.2070     0.0000    12.0000 </r>
       <r>   -38.0000     0.0000    12.0000 </r>
       <r>   -37.7929     0.0000    12.0000 </r>
       <r>   -37.5858     0.0000    12.0000 </r>
       <r>   -37.3788     0.0000    12.0000 </r>
       <r>   -37.1717     0.0000    12.0000 </r>
       <r>   -36.9646     0.0000    12.0000 </r>
       <r>   -36.7576     0.0000    12.0000 </r>
       <r>   -36.5505     0.0000    12.0000 </r>
       <r>   -36.3434     0.0000    12.0000 </r>
       <r>   -36.1364     0.0000    12.0000 </r>
       <r>   -35.9293     0.0000    12.0000 </r>
       <r>   -35.7222     0.0000    12.0000 </r>
       <r>   -35.5152     0.0000    12.0000 </r>
       <r>   -35.3081     0.0000    12.0000 </r>
       <r>   -35.1011     0.0000    12.0000 </r>
       <r>   -34.8940     0.0000    12.0000 </r>
       <r>   -34.6869     0.0000    12.0000 </r>
       <r>   -34.4799     0.0000    12.0000 </r>
       <r>   -34.2728     0.0000    12.0000 </r>
       <r>   -34.0657     0.0000    12.0000 </r>
       <r>   -33.8587     0.0000    12.0000 </r>
       <r>   -33.6516     0.0000    12.0000 </r>
       <r>   -33.4445     0.0000    12.0000 </r>
       <r>   -33.2375     0.0000    12.0000 </r>
       <r>   -33.0304     0.0000    12.0000 </r>
       <r>   -32.8233     0.0000    12.0000 </r>
       <r>   -32.6163     0.0000    12.0000 </r>
       <r>   -32.4092     0.0000    12.0000 </r>
       <r>   -32.2021     0.0000    12.0000 </r>
       <r>   -31.9951     0.0000    12.0000 </r>
       <r>   -31.7880     0.0000    12.0000 </r>
       <r>   -31.5809     0.0000    12.0000 </r>
       <r>   -31.3739     0.0000    12.0000 </r>
       <r>   -31.1668     0.0000    12.0000 </r>
       <r>   -30.9598     0.0000    12.0000 </r>
       <r>   -30.7527     0.0000    12.0000 </r>
       <r>   -30.5456     0.0000    12.0000 </r>
       <r>   -30.3386     0.0000    12.0000 </r>
       <r>   -30.1315     0.0000    12.0000 </r>
       <r>   -29.9244     0.0000    12.0000 </r>
       <r>   -29.7174     0.0000    12.0000 </r>
       <r>   -29.5103     0.0000    12.0000 </r>
       <r>   -29.3032     0.0000    12.0000 </r>
       <r>   -29.0962     0.0000    12.0000 </r>
       <r>   -28.8891     0.0000    12.0000 </r>
       <r>   -28.6820     0.0000    12.0000 </r>
       <r>   -28.4750     0.0000    12.0000 </r>
       <r>   -28.2679     0.0000    12.0000 </r>
       <r>   -28.0608     0.0000    12.0000 </r>
       <r>   -27.8538     0.0000    12.0000 </r>
       <r>   -27.6467     0.0000    12.0000 </r>
       <r>   -27.4396     0.0000    12.0000 </r>
       <r>   -27.2326     0.0000    12.0000 </r>
       <r>   -27.0255     0.0000    12.0000 </r>
       <r>   -26.8185     0.0000    12.0000 </r>
       <r>   -26.6114     0.0000    12.0000 </r>
       <r>   -26.4043     0.0000    12.0000 </r>
       <r>   -26.1973     0.0000    12.0000 </r>
       <r>   -25.9902    -0.0000    12.0000 </r>
       <r>   -25.7831    -0.0000    12.0000 </r>
       <r>   -25.5761    -0.0000    12.0000 </r>
       <r>   -25.3690    -0.0000    12.0000 </r>
       <r>   -25.1619    -0.0000    12.0000 </r>
       <r>   -24.9549    -0.0000    12.0000 </r>
       <r>   -24.7478    -0.0031    11.9994 </r>
       <r>   -24.5407    -0.1196    11.9746 </r>
       <r>   -24.3337     0.0741    11.9899 </r>
       <r>   -24.1266     6.1805    13.2697 </r>
       <r>   -23.9195    14.8343    16.3414 </r>
       <r>   -23.7125    24.6158    21.4384 </r>
       <r>   -23.5054    27.1921    27.0690 </r>
       <r>   -23.2984    40.4362    35.4419 </r>
       <r>   -23.0913    35.0586    42.7013 </r>
       <r>   -22.8842    20.4340    46.9324 </r>
       <r>   -22.6772     5.6023    48.0925 </r>
       <r>   -22.4701    -0.3606    48.0178 </r>
       <r>   -22.2630    -0.0847    48.0003 </r>
       <r>   -22.0560    -0.0013    48.0000 </r>
       <r>   -21.8489    -0.0000    48.0000 </r>
       <r>   -21.6418    -0.0000    48.0000 </r>
       <r>   -21.4348    -0.0000    48.0000 </r>
       <r>   -21.2277     0.0000    48.0000 </r>
       <r>   -21.0206     0.0000    48.0000 </r>
       <r>   -20.8136     0.0000    48.0000 </r>
       <r>   -20.6065     0.0000    48.0000 </r>
       <r>   -20.3994     0.0000    48.0000 </r>
       <r>   -20.1924     0.0000    48.0000 </r>
       <r>   -19.9853     0.0000    48.0000 </r>
       <r>   -19.7782     0.0000    48.0000 </r>
       <r>   -19.5712     0.0000    48.0000 </r>
       <r>   -19.3641     0.0000    48.0000 </r>
       <r>   -19.1571     0.0000    48.0000 </r>
       <r>   -18.9500     0.0000    48.0000 </r>
       <r>   -18.7429     0.0000    48.0000 </r>
       <r>   -18.5359     0.0000    48.0000 </r>
       <r>   -18.3288     0.0000    48.0000 </r>
       <r>   -18.1217     0.0000    48.0000 </r>
       <r>   -17.9147     0.0000    48.0000 </r>
       <r>   -17.7076     0.0000    48.0000 </r>
       <r>   -17.5005     0.0000    48.0000 </r>
       <r>   -17.2935     0.0000    48.0000 </r>
       <r>   -17.0864     0.0000    48.0000 </r>
       <r>   -16.8793     0.0000    48.0000 </r>
       <r>   -16.6723     0.0000    48.0000 </r>
       <r>   -16.4652     0.0000    48.0000 </r>
       <r>   -16.2581     0.0000    48.0000 </r>
       <r>   -16.0511     0.0000    48.0000 </r>
       <r>   -15.8440     0.0000    48.0000 </r>
       <r>   -15.6369     0.0000    48.0000 </r>
       <r>   -15.4299     0.0000    48.0000 </r>
       <r>   -15.2228     0.0000    48.0000 </r>
       <r>   -15.0158     0.0000    48.0000 </r>
       <r>   -14.8087     0.0000    48.0000 </r>
       <r>   -14.6016     0.0000    48.0000 </r>
       <r>   -14.3946     0.0000    48.0000 </r>
       <r>   -14.1875     0.0000    48.0000 </r>
       <r>   -13.9804     0.0000    48.0000 </r>
       <r>   -13.7734     0.0000    48.0000 </r>
       <r>   -13.5663     0.0000    48.0000 </r>
       <r>   -13.3592     0.0000    48.0000 </r>
       <r>   -13.1522     0.0000    48.0000 </r>
       <r>   -12.9451     0.0000    48.0000 </r>
       <r>   -12.7380     0.0000    48.0000 </r>
       <r>   -12.5310     0.0000    48.0000 </r>
       <r>   -12.3239     0.0000    48.0000 </r>
       <r>   -12.1168     0.0000    48.0000 </r>
       <r>   -11.9098     0.0000    48.0000 </r>
       <r>   -11.7027     0.0000    48.0000 </r>
       <r>   -11.4956     0.0000    48.0000 </r>
       <r>   -11.2886     0.0000    48.0000 </r>
       <r>   -11.0815     0.0000    48.0000 </r>
       <r>   -10.8745     0.0000    48.0000 </r>
       <r>   -10.6674     0.0000    48.0000 </r>
       <r>   -10.4603     0.0000    48.0000 </r>
       <r>   -10.2533     0.0000    48.0000 </r>
       <r>   -10.0462     0.0000    48.0000 </r>
       <r>    -9.8391     0.0000    48.0000 </r>
       <r>    -9.6321     0.0000    48.0000 </r>
       <r>    -9.4250     0.0000    48.0000 </r>
       <r>    -9.2179     0.0000    48.0000 </r>
       <r>    -9.0109     0.0000    48.0000 </r>
       <r>    -8.8038     0.0000    48.0000 </r>
       <r>    -8.5967     0.0000    48.0000 </r>
       <r>    -8.3897     0.0000    48.0000 </r>
       <r>    -8.1826     0.0000    48.0000 </r>
       <r>    -7.9755     0.0000    48.0000 </r>
       <r>    -7.7685     0.0000    48.0000 </r>
       <r>    -7.5614     0.0000    48.0000 </r>
       <r>    -7.3544     0.0000    48.0000 </r>
       <r>    -7.1473     0.0000    48.0000 </r>
       <r>    -6.9402     0.0000    48.0000 </r>
       <r>    -6.7332     0.0000    48.0000 </r>
       <r>    -6.5261     0.0000    48.0000 </r>
       <r>    -6.3190     0.0000    48.0000 </r>
       <r>    -6.1120     0.0000    48.0000 </r>
       <r>    -5.9049     0.0000    48.0000 </r>
       <r>    -5.6978     0.0000    48.0000 </r>
       <r>    -5.4908     0.0000    48.0000 </r>
       <r>    -5.2837     0.0000    48.0000 </r>
       <r>    -5.0766     0.0000    48.0000 </r>
       <r>    -4.8696     0.0000    48.0000 </r>
       <r>    -4.6625     0.0000    48.0000 </r>
       <r>    -4.4554     0.0000    48.0000 </r>
       <r>    -4.2484     0.0000    48.0000 </r>
       <r>    -4.0413     0.0000    48.0000 </r>
       <r>    -3.8342     0.0000    48.0000 </r>
       <r>    -3.6272     0.0000    48.0000 </r>
       <r>    -3.4201     0.0000    48.0000 </r>
       <r>    -3.2131     0.0000    48.0000 </r>
       <r>    -3.0060     0.0000    48.0000 </r>
       <r>    -2.7989     0.0000    48.0000 </r>
       <r>    -2.5919     0.0000    48.0000 </r>
       <r>    -2.3848     0.0000    48.0000 </r>
       <r>    -2.1777     0.0000    48.0000 </r>
       <r>    -1.9707     0.0000    48.0000 </r>
       <r>    -1.7636    -0.0000    48.0000 </r>
       <r>    -1.5565    -0.0000    48.0000 </r>
       <r>    -1.3495    -0.0000    48.0000 </r>
       <r>    -1.1424    -0.0000    48.0000 </r>
       <r>    -0.9353    -0.0000    48.0000 </r>
       <r>    -0.7283    -0.0000    48.0000 </r>
       <r>    -0.5212    -0.0005    47.9999 </r>
       <r>    -0.3141    -0.0118    47.9975 </r>
       <r>    -0.1071     0.0281    48.0033 </r>
       <r>     0.1000     0.5836    48.1241 </r>
       <r>     0.3071     1.2310    48.3790 </r>
       <r>     0.5141     1.3568    48.6600 </r>
       <r>     0.7212     1.9543    49.0646 </r>
       <r>     0.9282     1.7302    49.4229 </r>
       <r>     1.1353     2.2776    49.8945 </r>
       <r>     1.3424     3.2121    50.5596 </r>
       <r>     1.5494     3.4053    51.2647 </r>
       <r>     1.7565     3.6272    52.0158 </r>
       <r>     1.9636     4.3961    52.9261 </r>
       <r>     2.1706     5.3577    54.0354 </r>
       <r>     2.3777     6.0094    55.2798 </r>
       <r>     2.5848     9.4469    57.2359 </r>
       <r>     2.7918    16.3716    60.6259 </r>
       <r>     2.9989    20.8413    64.9414 </r>
       <r>     3.2060    24.6951    70.0549 </r>
       <r>     3.4130    27.6340    75.7769 </r>
       <r>     3.6201    29.7038    81.9275 </r>
       <r>     3.8272    30.0994    88.1601 </r>
       <r>     4.0342    32.2760    94.8433 </r>
       <r>     4.2413    31.9861   101.4665 </r>
       <r>     4.4484    28.5572   107.3797 </r>
       <r>     4.6554    27.4948   113.0729 </r>
       <r>     4.8625    31.2138   119.5362 </r>
       <r>     5.0695    38.2121   127.4485 </r>
       <r>     5.2766    40.8703   135.9113 </r>
       <r>     5.4837    40.0719   144.2088 </r>
       <r>     5.6907    40.8071   152.6585 </r>
       <r>     5.8978    40.3751   161.0188 </r>
       <r>     6.1049    42.6939   169.8592 </r>
       <r>     6.3119    43.5819   178.8835 </r>
       <r>     6.5190    43.0599   187.7997 </r>
       <r>     6.7261    38.8095   195.8358 </r>
       <r>     6.9331    31.6746   202.3945 </r>
       <r>     7.1402    25.1861   207.6096 </r>
       <r>     7.3473    20.0978   211.7712 </r>
       <r>     7.5543    18.0875   215.5165 </r>
       <r>     7.7614    19.0194   219.4547 </r>
       <r>     7.9685    19.8110   223.5569 </r>
       <r>     8.1755    23.8166   228.4885 </r>
       <r>     8.3826    26.5610   233.9883 </r>
       <r>     8.5896    19.6138   238.0496 </r>
       <r>     8.7967     8.7635   239.8642 </r>
       <r>     9.0038     0.8499   240.0402 </r>
       <r>     9.2108    -0.1809   240.0028 </r>
       <r>     9.4179    -0.0132   240.0000 </r>
       <r>     9.6250    -0.0001   240.0000 </r>
       <r>     9.8320    -0.0000   240.0000 </r>
       <r>    10.0391    -0.0000   240.0000 </r>
       <r>    10.2462    -0.0000   240.0000 </r>
       <r>    10.4532     0.0000   240.0000 </r>
       <r>    10.6603     0.0000   240.0000 </r>
       <r>    10.8674     0.0000   240.0000 </r>
       <r>    11.0744     0.0000   240.0000 </r>
       <r>    11.2815     0.0000   240.0000 </r>
       <r>    11.4886     0.0000   240.0000 </r>
       <r>    11.6956     0.0000   240.0000 </r>
      </set>
     </set>
    </array>
   </total>
  </dos>
 </calculation>
 <structure name="finalpos" >
  <crystal>
   <varray name="basis" >
    <v>      -3.13414112      -3.14561811      -3.15788348 </v>
    <v>       1.53525834       1.57694817      -7.86735932 </v>
    <v>       7.78885391      -7.85236040      -1.54457230 </v>
   </varray>
   <i name="volume">    463.40642082 </i>
   <varray name="rec_basis" >
    <v>      -0.13856746      -0.12711605      -0.05251982 </v>
    <v>       0.04302531       0.06352351      -0.10597860 </v>
    <v>       0.06415001      -0.06367107      -0.00024394 </v>
   </varray>
  </crystal>
  <varray name="positions" >
   <v>       0.95641283       0.93331216       0.40250680 </v>
   <v>       0.63292178       0.26451497       0.40600257 </v>
   <v>       0.49922777       0.00449296      -0.00825024 </v>
   <v>       0.00461696      -0.01042272      -0.01651376 </v>
   <v>       0.10065162       0.20867552       0.79458926 </v>
   <v>       0.02477865       0.05083651       0.61711289 </v>
   <v>       0.91279855       0.79565469       0.19804329 </v>
   <v>       0.80890011       0.59081384       0.40017337 </v>
   <v>       0.73590217       0.46691993       0.19812933 </v>
   <v>       0.66338733       0.34205643      -0.00586359 </v>
   <v>       0.37793639       0.72401695       0.60348016 </v>
   <v>       0.12904042       0.27267091       0.40248033 </v>
   <v>       0.84713737       0.66871271      -0.00810593 </v>
   <v>       0.57448426       0.13405915       0.19298892 </v>
   <v>       0.41071688       0.79420869       0.19501927 </v>
   <v>       0.46736566       0.85412195       0.79554962 </v>
   <v>       0.30096549       0.60056389       0.40426093 </v>
   <v>       0.85900563       0.72938123       0.60795314 </v>
   <v>       0.46145206       0.93060659       0.41031998 </v>
   <v>       0.17420320       0.33977991      -0.00365480 </v>
   <v>       0.23555522       0.56583433       0.79704548 </v>
   <v>       0.19164837       0.39005058       0.59994089 </v>
   <v>       0.06712845       0.14925872       0.20632327 </v>
   <v>       0.75180946       0.51298105       0.80543987 </v>
   <v>       0.67894661       0.40624495       0.60882713 </v>
   <v>       0.58724189       0.21723752       0.79292808 </v>
   <v>       0.52657141       0.07475464       0.60585719 </v>
   <v>       0.35604158       0.64734396       0.00024301 </v>
   <v>       0.22981854       0.47465130       0.19717354 </v>
  </varray>
 </structure>
</modeling>
