Nb - Mo - Ta - Ti - V SQS               
           1
    -3.160000   -3.160000   -3.160000
     1.580000    1.580000   -7.900000
     7.900000   -7.900000   -1.580000
   Nb   Mo   Ta   Ti   V 
   6   6   5   6   6
Direct configuration=     1
   0.96666667  0.93333333  0.40000000
   0.63333333  0.26666667  0.40000000
   0.50000000  0.00000000  0.00000000
   0.00000000  0.00000000  0.00000000
   0.10000000  0.20000000  0.80000000
   0.03333333  0.06666667  0.60000000
   0.90000000  0.80000000  0.20000000
   0.80000000  0.60000000  0.40000000
   0.73333333  0.46666667  0.20000000
   0.66666667  0.33333333  0.00000000
   0.36666667  0.73333333  0.60000000
   0.13333333  0.26666667  0.40000000
   0.83333333  0.66666667  0.00000000
   0.56666667  0.13333333  0.20000000
   0.40000000  0.80000000  0.20000000
   0.43333333  0.86666667  0.80000000
   0.30000000  0.60000000  0.40000000
   0.86666667  0.73333333  0.60000000
   0.46666667  0.93333333  0.40000000
   0.16666667  0.33333333  0.00000000
   0.26666667  0.53333333  0.80000000
   0.20000000  0.40000000  0.60000000
   0.06666667  0.13333333  0.20000000
   0.76666667  0.53333333  0.80000000
   0.70000000  0.40000000  0.60000000
   0.60000000  0.20000000  0.80000000
   0.53333333  0.06666667  0.60000000
   0.33333333  0.66666667  0.00000000
   0.23333333  0.46666667  0.20000000
Nb - Mo - Ta - Ti - V SQS               
           1
    -3.108978   -3.117490   -3.118455
     1.554010    1.565373   -7.802286
     7.784127   -7.810306   -1.554330
   Nb   Mo   Ta   Ti   V 
   6   6   5   6   6
Direct configuration=     2
   0.96278256  0.93366751  0.39976462
   0.63258973  0.26648393  0.40184261
   0.49788220  0.00191435 -0.00132935
  -0.00105168 -0.00217833 -0.00257707
   0.09902867  0.20588627  0.79751509
   0.03425799  0.06560207  0.60189629
   0.90367062  0.79699936  0.20119038
   0.80433287  0.59533967  0.39942670
   0.73299882  0.46621077  0.19908791
   0.66374144  0.33879612 -0.00157153
   0.37307385  0.73024374  0.60045316
   0.13318274  0.27103009  0.39893158
   0.83442758  0.66701388 -0.00186711
   0.56674373  0.13447682  0.19698602
   0.40312386  0.79484269  0.19704150
   0.43757843  0.86171599  0.79815648
   0.29929585  0.60099872  0.40252537
   0.86279848  0.73309121  0.60157036
   0.46550139  0.93220631  0.40412425
   0.16891273  0.33468185 -0.00013897
   0.26812321  0.53784730  0.79937839
   0.20077703  0.39638356  0.60058978
   0.06500623  0.13917960  0.20304157
   0.76371417  0.52616424  0.80138012
   0.69630924  0.40309875  0.60205307
   0.59711735  0.20216775  0.79893072
   0.53163405  0.06978611  0.60064354
   0.33902680  0.66098416  0.00108619
   0.23008670  0.46869886  0.19986834
Nb - Mo - Ta - Ti - V SQS               
           1
    -3.110270   -3.118567   -3.119507
     1.554668    1.565743   -7.804761
     7.787062   -7.812577   -1.554980
   Nb   Mo   Ta   Ti   V 
   6   6   5   6   6
Direct configuration=     3
   0.96288236  0.93365891  0.39977060
   0.63260900  0.26648851  0.40179533
   0.49793653  0.00186531 -0.00129531
  -0.00102488 -0.00212236 -0.00251092
   0.09905347  0.20573545  0.79757872
   0.03423438  0.06562928  0.60184766
   0.90357636  0.79707628  0.20115994
   0.80422144  0.59545924  0.39944156
   0.73300734  0.46622251  0.19911132
   0.66381653  0.33865609 -0.00153135
   0.37290921  0.73032301  0.60044168
   0.13318656  0.27091826  0.39895891
   0.83439931  0.66700509 -0.00181920
   0.56674151  0.13444765  0.19706333
   0.40304330  0.79497511  0.19711755
   0.43746915  0.86184307  0.79820393
   0.29931416  0.60097297  0.40246055
   0.86289802  0.73309729  0.60153002
   0.46553167  0.93223499  0.40401843
   0.16885501  0.33464731 -0.00013540
   0.26808576  0.53773161  0.79939428
   0.20075708  0.39647627  0.60057472
   0.06504920  0.13902952  0.20296339
   0.76379012  0.52634796  0.80134480
   0.69640428  0.40301915  0.60200028
   0.59719136  0.20211218  0.79895807
   0.53167780  0.06970607  0.60062695
   0.33888053  0.66112987  0.00105851
   0.23017014  0.46864672  0.19987164
Nb - Mo - Ta - Ti - V SQS               
           1
    -3.114489   -3.129126   -3.132158
     1.555112    1.573266   -7.836973
     7.805083   -7.849606   -1.558150
   Nb   Mo   Ta   Ti   V 
   6   6   5   6   6
Direct configuration=     4
   0.95971443  0.93412936  0.39986169
   0.63224299  0.26609955  0.40323896
   0.49642534  0.00312764 -0.00286129
  -0.00170366 -0.00385758 -0.00504141
   0.09820849  0.20999495  0.79574089
   0.03439958  0.06440604  0.60377518
   0.90631547  0.79478389  0.20171904
   0.80724500  0.59224404  0.39928506
   0.73286563  0.46561585  0.19845489
   0.66141287  0.34289306 -0.00305801
   0.37766383  0.72776367  0.60103434
   0.13297110  0.27389604  0.39836978
   0.83636312  0.66767391 -0.00401572
   0.56682792  0.13524748  0.19502285
   0.40520546  0.79172831  0.19523497
   0.44107940  0.85813032  0.79688825
   0.29924573  0.60147491  0.40450728
   0.86009055  0.73286558  0.60330029
   0.46462376  0.93135413  0.40703714
   0.17073469  0.33592806 -0.00028369
   0.26820870  0.54195782  0.79887196
   0.20124725  0.39365859  0.60109222
   0.06381294  0.14360230  0.20513394
   0.76160962  0.52038713  0.80240107
   0.69309500  0.40551322  0.60395543
   0.59505746  0.20410456  0.79781112
   0.53067040  0.07221027  0.60129793
   0.34334504  0.65609257  0.00167850
   0.22768858  0.47030766  0.19954735
Nb - Mo - Ta - Ti - V SQS               
           1
    -3.118140   -3.138264   -3.143107
     1.555496    1.579776   -7.864852
     7.820680   -7.881653   -1.560892
   Nb   Mo   Ta   Ti   V 
   6   6   5   6   6
Direct configuration=     5
   0.95697935  0.93453638  0.39994153
   0.63192430  0.26576594  0.40448397
   0.49512334  0.00421483 -0.00421082
  -0.00228332 -0.00535593 -0.00722423
   0.09748034  0.21366534  0.79415783
   0.03453893  0.06335352  0.60543701
   0.90868013  0.79280711  0.20219937
   0.80985724  0.58947082  0.39914779
   0.73274504  0.46509221  0.19788858
   0.65933861  0.34654504 -0.00437218
   0.38176841  0.72555593  0.60154282
   0.13278454  0.27646258  0.39786292
   0.83806247  0.66824729 -0.00591050
   0.56690626  0.13593476  0.19326335
   0.40707772  0.78892634  0.19360935
   0.44420077  0.85492667  0.79575086
   0.29918212  0.60190987  0.40627267
   0.85766357  0.73266894  0.60482793
   0.46383431  0.93059842  0.40964056
   0.17235679  0.33703120 -0.00041175
   0.26831338  0.54560054  0.79842308
   0.20167098  0.39122988  0.60153727
   0.06273854  0.14754727  0.20700809
   0.75972876  0.51525048  0.80331047
   0.69023283  0.40766684  0.60564374
   0.59321662  0.20582181  0.79682347
   0.52979790  0.07437024  0.60187793
   0.34720062  0.65174878  0.00220969
   0.22554613  0.47174022  0.19926918
Nb - Mo - Ta - Ti - V SQS               
           1
    -3.126323   -3.144429   -3.152349
     1.556274    1.577644   -7.879472
     7.834616   -7.890372   -1.565699
   Nb   Mo   Ta   Ti   V 
   6   6   5   6   6
Direct configuration=     6
   0.95707032  0.93445844  0.40043699
   0.63242208  0.26568744  0.40422704
   0.49518070  0.00357639 -0.00507398
  -0.00202365 -0.00539825 -0.00792819
   0.09811593  0.21230539  0.79463354
   0.03394064  0.06263531  0.60600754
   0.90805114  0.79321212  0.20140352
   0.80923866  0.59047119  0.39942378
   0.73274073  0.46521414  0.19808317
   0.65981326  0.34541382 -0.00456975
   0.38082297  0.72560833  0.60178659
   0.13233095  0.27559274  0.39860099
   0.83944470  0.66879969 -0.00657074
   0.56742406  0.13553608  0.19363448
   0.40706025  0.79005941  0.19438517
   0.44480149  0.85545138  0.79610475
   0.29984007  0.60171083  0.40615775
   0.85831587  0.73256163  0.60552141
   0.46371579  0.93050809  0.40920542
   0.17237385  0.33758825 -0.00062133
   0.26604793  0.54653193  0.79836227
   0.20133782  0.39142501  0.60125617
   0.06276634  0.14751405  0.20659550
   0.75958218  0.51532536  0.80346545
   0.68952858  0.40754152  0.60607649
   0.59310886  0.20683415  0.79625911
   0.53016799  0.07431369  0.60227195
   0.34758334  0.65094940  0.00183588
   0.22586382  0.47190579  0.19902905
Nb - Mo - Ta - Ti - V SQS               
           1
    -3.136188   -3.151860   -3.163490
     1.557211    1.575073   -7.897096
     7.851416   -7.900883   -1.571494
   Nb   Mo   Ta   Ti   V 
   6   6   5   6   6
Direct configuration=     7
   0.95718015  0.93436426  0.40103342
   0.63302061  0.26559297  0.40391786
   0.49524980  0.00280844 -0.00611283
  -0.00171182 -0.00544880 -0.00877551
   0.09888214  0.21066790  0.79520658
   0.03322235  0.06177057  0.60669435
   0.90729373  0.79370033  0.20044534
   0.80849384  0.59167534  0.39975567
   0.73273556  0.46536079  0.19831737
   0.66038520  0.34405213 -0.00480723
   0.37968612  0.72567152  0.60207985
   0.13178696  0.27454534  0.39948953
   0.84110584  0.66946468 -0.00736540
   0.56804745  0.13505579  0.19408138
   0.40703851  0.79142280  0.19531878
   0.44552355  0.85608257  0.79653071
   0.30063143  0.60147114  0.40601957
   0.85910091  0.73243181  0.60635630
   0.46357305  0.93039968  0.40868164
   0.17239359  0.33825892 -0.00087373
   0.26332251  0.54765375  0.79828851
   0.20093676  0.39166017  0.60091770
   0.06279953  0.14747434  0.20609886
   0.75940592  0.51541543  0.80365196
   0.68868211  0.40739059  0.60659733
   0.59297774  0.20805314  0.79557953
   0.53061338  0.07424525  0.60274631
   0.34804422  0.64998730  0.00138615
   0.22624551  0.47210517  0.19874002
Nb - Mo - Ta - Ti - V SQS               
           1
    -3.134200   -3.148493   -3.162373
     1.552537    1.569219   -7.886496
     7.839530   -7.886450   -1.570060
   Nb   Mo   Ta   Ti   V 
   6   6   5   6   6
Direct configuration=     8
   0.95717738  0.93426803  0.40141849
   0.63331942  0.26553950  0.40381765
   0.49532320  0.00243380 -0.00671563
  -0.00153294 -0.00562144 -0.00942688
   0.09940558  0.20970321  0.79547569
   0.03273786  0.06103619  0.60731075
   0.90706015  0.79404241  0.19982938
   0.80824349  0.59228137  0.39996740
   0.73270225  0.46561100  0.19838686
   0.66079617  0.34326121 -0.00499070
   0.37909032  0.72568726  0.60233113
   0.13137428  0.27400601  0.40007768
   0.84225376  0.66979494 -0.00791510
   0.56856446  0.13461736  0.19417877
   0.40711503  0.79222019  0.19580557
   0.44629064  0.85624930  0.79668706
   0.30101243  0.60140354  0.40585748
   0.85952647  0.73231834  0.60703174
   0.46339048  0.93032207  0.40846016
   0.17246897  0.33877217 -0.00109681
   0.26114435  0.54870476  0.79818393
   0.20058944  0.39163949  0.60071592
   0.06283928  0.14758714  0.20584926
   0.75912342  0.51522766  0.80390349
   0.68791626  0.40735021  0.60702481
   0.59273950  0.20911489  0.79503872
   0.53085183  0.07430263  0.60307661
   0.34874273  0.64912698  0.00114917
   0.22640044  0.47233309  0.19856739
Nb - Mo - Ta - Ti - V SQS               
           1
    -3.130146   -3.141629   -3.160096
     1.543008    1.557282   -7.864883
     7.815293   -7.857022   -1.567138
   Nb   Mo   Ta   Ti   V 
   6   6   5   6   6
Direct configuration=     9
   0.95717208  0.93407128  0.40220502
   0.63392922  0.26543022  0.40361304
   0.49547330  0.00166887 -0.00794675
  -0.00116798 -0.00597378 -0.01075723
   0.10047552  0.20773248  0.79602557
   0.03175078  0.05953608  0.60856976
   0.90658258  0.79474153  0.19857120
   0.80773173  0.59351916  0.40039973
   0.73263389  0.46612206  0.19852875
   0.66163604  0.34164570 -0.00536524
   0.37787464  0.72571950  0.60284425
   0.13053340  0.27290425  0.40127898
   0.84459537  0.67046936 -0.00903769
   0.56962026  0.13372160  0.19437784
   0.40727009  0.79384858  0.19679974
   0.44785579  0.85658946  0.79700652
   0.30178994  0.60126541  0.40552649
   0.86039542  0.73208607  0.60841140
   0.46301792  0.93016374  0.40800778
   0.17262179  0.33982059 -0.00155251
   0.25669773  0.55085231  0.79796980
   0.19988061  0.39159750  0.60030371
   0.06292006  0.14781767  0.20533943
   0.75854741  0.51484412  0.80441722
   0.68635374  0.40726779  0.60789781
   0.59225126  0.21128391  0.79393392
   0.53133850  0.07441958  0.60375129
   0.35016946  0.64736963  0.00066539
   0.22671612  0.47279866  0.19821481
Nb - Mo - Ta - Ti - V SQS               
           1
    -3.130688   -3.143061   -3.161140
     1.541521    1.557163   -7.864923
     7.811941   -7.857114   -1.566463
   Nb   Mo   Ta   Ti   V 
   6   6   5   6   6
Direct configuration=    10
   0.95700624  0.93401748  0.40234464
   0.63379217  0.26539544  0.40387641
   0.49561233  0.00199437 -0.00798440
  -0.00107924 -0.00638293 -0.01130293
   0.10062817  0.20771950  0.79585055
   0.03132170  0.05880096  0.60931857
   0.90719079  0.79495790  0.19839283
   0.80800863  0.59339869  0.40053779
   0.73270074  0.46644468  0.19838125
   0.66191280  0.34148529 -0.00548819
   0.37789161  0.72568221  0.60306470
   0.13037256  0.27293686  0.40146576
   0.84525656  0.67026897 -0.00944426
   0.56998556  0.13343253  0.19406612
   0.40734646  0.79394739  0.19664589
   0.44885890  0.85611262  0.79675574
   0.30162338  0.60132504  0.40534034
   0.86049666  0.73198165  0.60905012
   0.46284642  0.93019474  0.40822797
   0.17273504  0.34004056 -0.00176081
   0.25472742  0.55202197  0.79776440
   0.19943228  0.39130904  0.60034786
   0.06303956  0.14808558  0.20534955
   0.75813092  0.51437442  0.80469625
   0.68569446  0.40725915  0.60821119
   0.59191348  0.21210076  0.79352199
   0.53137327  0.07462404  0.60393235
   0.35116536  0.64675398  0.00068284
   0.22668244  0.47305045  0.19815547
Nb - Mo - Ta - Ti - V SQS               
           1
    -3.132314   -3.147356   -3.164275
     1.537062    1.556807   -7.865042
     7.801884   -7.857391   -1.564438
   Nb   Mo   Ta   Ti   V 
   6   6   5   6   6
Direct configuration=    11
   0.95650871  0.93385617  0.40276359
   0.63338084  0.26529127  0.40466671
   0.49602913  0.00297091 -0.00809730
  -0.00081212 -0.00761083 -0.01294050
   0.10108623  0.20768042  0.79532534
   0.03003436  0.05659595  0.61156536
   0.90901495  0.79560696  0.19785757
   0.80883899  0.59303734  0.40095200
   0.73290118  0.46741252  0.19793875
   0.66274309  0.34100395 -0.00585720
   0.37794224  0.72557045  0.60372617
   0.12988994  0.27303483  0.40202628
   0.84724020  0.66966748 -0.01066437
   0.57108172  0.13256506  0.19313060
   0.40757563  0.79424376  0.19618426
   0.45186797  0.85468184  0.79600295
   0.30112404  0.60150380  0.40478181
   0.86079948  0.73166880  0.61096665
   0.46233174  0.93028787  0.40888870
   0.17307481  0.34070038 -0.00238578
   0.24881782  0.55553103  0.79714872
   0.19808785  0.39044362  0.60048035
   0.06339776  0.14888936  0.20537997
   0.75688178  0.51296540  0.80553348
   0.68371684  0.40723345  0.60915163
   0.59090047  0.21455118  0.79228621
   0.53147717  0.07523759  0.60447568
   0.35415253  0.64490691  0.00073486
   0.22658134  0.47380586  0.19797748
Nb - Mo - Ta - Ti - V SQS               
           1
    -3.133051   -3.149302   -3.165695
     1.535041    1.556645   -7.865095
     7.797327   -7.857516   -1.563521
   Nb   Mo   Ta   Ti   V 
   6   6   5   6   6
Direct configuration=    12
   0.95628332  0.93378320  0.40295353
   0.63319421  0.26524430  0.40502500
   0.49621756  0.00341339 -0.00814839
  -0.00068987 -0.00816773 -0.01368301
   0.10129389  0.20766256  0.79508721
   0.02945100  0.05559745  0.61258372
   0.90984072  0.79590092  0.19761486
   0.80921468  0.59287374  0.40113967
   0.73299187  0.46785095  0.19773825
   0.66311926  0.34078573 -0.00602460
   0.37796480  0.72552001  0.60402602
   0.12967112  0.27307939  0.40228043
   0.84813894  0.66939456 -0.01121770
   0.57157869  0.13217170  0.19270632
   0.40767954  0.79437791  0.19597501
   0.45323082  0.85403329  0.79566129
   0.30089831  0.60158463  0.40452868
   0.86093549  0.73152761  0.61183541
   0.46209836  0.93033027  0.40918828
   0.17322877  0.34099917 -0.00266904
   0.24614232  0.55712088  0.79687049
   0.19747952  0.39005150  0.60054041
   0.06355962  0.14925359  0.20539383
   0.75631633  0.51232717  0.80591294
   0.68282117  0.40722207  0.60957811
   0.59044195  0.21566117  0.79172637
   0.53152369  0.07551578  0.60472205
   0.35550511  0.64406998  0.00075800
   0.22653546  0.47414810  0.19789689
Nb - Mo - Ta - Ti - V SQS               
           1
    -3.134916   -3.151041   -3.166396
     1.537739    1.562916   -7.873986
     7.800191   -7.861946   -1.562017
   Nb   Mo   Ta   Ti   V 
   6   6   5   6   6
Direct configuration=    13
   0.95614829  0.93383180  0.40288762
   0.63312496  0.26531337  0.40508126
   0.49616102  0.00353621 -0.00831814
   0.00014454 -0.00855349 -0.01402301
   0.10147066  0.20795204  0.79489992
   0.02903649  0.05520305  0.61307966
   0.91037214  0.79555865  0.19778286
   0.80922497  0.59222864  0.40108096
   0.73351581  0.46769186  0.19772419
   0.66314148  0.34108475 -0.00585503
   0.37842280  0.72519011  0.60371478
   0.12946874  0.27353309  0.40199549
   0.84741794  0.66951494 -0.01083947
   0.57187789  0.13273547  0.19274130
   0.40843025  0.79394489  0.19545339
   0.45434781  0.85382092  0.79583656
   0.30081355  0.60154970  0.40475969
   0.86078465  0.73151683  0.61180433
   0.46202361  0.93045832  0.40955475
   0.17333588  0.34065706 -0.00277303
   0.24519959  0.55791216  0.79679141
   0.19679533  0.39012968  0.60054124
   0.06370019  0.14944610  0.20558849
   0.75552296  0.51227596  0.80582854
   0.68255228  0.40706082  0.60943453
   0.59001898  0.21571987  0.79175774
   0.53107168  0.07544171  0.60481150
   0.35580938  0.64436761  0.00083592
   0.22673281  0.47421120  0.19782256
Nb - Mo - Ta - Ti - V SQS               
           1
    -3.136755   -3.152755   -3.167087
     1.540400    1.569100   -7.882754
     7.803016   -7.866316   -1.560533
   Nb   Mo   Ta   Ti   V 
   6   6   5   6   6
Direct configuration=    14
   0.95601523  0.93387962  0.40282267
   0.63305673  0.26538139  0.40513673
   0.49610539  0.00365709 -0.00848543
   0.00096676 -0.00893337 -0.01435823
   0.10164511  0.20823706  0.79471537
   0.02862761  0.05481477  0.61356843
   0.91089568  0.79522171  0.19794838
   0.80923466  0.59159337  0.40102295
   0.73403212  0.46753525  0.19771031
   0.66316357  0.34137927 -0.00568781
   0.37887403  0.72486520  0.60340791
   0.12926959  0.27397975  0.40171471
   0.84670732  0.66963351 -0.01046663
   0.57217320  0.13329069  0.19277591
   0.40916994  0.79351840  0.19493913
   0.45544863  0.85361198  0.79600928
   0.30072997  0.60151536  0.40498740
   0.86063596  0.73150619  0.61177369
   0.46194999  0.93058453  0.40991602
   0.17344123  0.34032015 -0.00287561
   0.24427092  0.55869124  0.79671362
   0.19612101  0.39020658  0.60054208
   0.06383886  0.14963575  0.20578041
   0.75474094  0.51222541  0.80574532
   0.68228714  0.40690196  0.60929295
   0.58960211  0.21577763  0.79178867
   0.53062608  0.07536874  0.60489966
   0.35610949  0.64466077  0.00091279
   0.22692738  0.47427333  0.19774931
Nb - Mo - Ta - Ti - V SQS               
           1
    -3.134489   -3.150223   -3.163749
     1.540286    1.571681   -7.879259
     7.795921   -7.860133   -1.557308
   Nb   Mo   Ta   Ti   V 
   6   6   5   6   6
Direct configuration=    15
   0.95595226  0.93387715  0.40277572
   0.63300311  0.26542823  0.40518970
   0.49621071  0.00375358 -0.00854766
   0.00153681 -0.00920246 -0.01459084
   0.10170298  0.20843351  0.79460056
   0.02832121  0.05451599  0.61390571
   0.91123015  0.79501851  0.19806344
   0.80924528  0.59119066  0.40094002
   0.73440007  0.46739027  0.19771644
   0.66315551  0.34158007 -0.00557025
   0.37915693  0.72463538  0.60323556
   0.12914323  0.27425414  0.40155509
   0.84629579  0.66966331 -0.01009790
   0.57236854  0.13364829  0.19280010
   0.40967241  0.79326223  0.19466970
   0.45632305  0.85348468  0.79609325
   0.30069083  0.60151302  0.40508191
   0.86050957  0.73148622  0.61162586
   0.46190943  0.93066077  0.41012968
   0.17353418  0.34008029 -0.00295868
   0.24362006  0.55927298  0.79670038
   0.19559600  0.39029039  0.60050269
   0.06406963  0.14971852  0.20591244
   0.75411808  0.51224776  0.80568541
   0.68207183  0.40676955  0.60913014
   0.58929980  0.21580806  0.79185262
   0.53021342  0.07527230  0.60497610
   0.35617719  0.64496641  0.00092746
   0.22713860  0.47431353  0.19769537
Nb - Mo - Ta - Ti - V SQS               
           1
    -3.131823   -3.147242   -3.159821
     1.540151    1.574718   -7.875146
     7.787572   -7.852857   -1.553513
   Nb   Mo   Ta   Ti   V 
   6   6   5   6   6
Direct configuration=    16
   0.95587809  0.93387421  0.40272043
   0.63293998  0.26548338  0.40525210
   0.49633481  0.00386715 -0.00862094
   0.00220810 -0.00951923 -0.01486487
   0.10177126  0.20866472  0.79446535
   0.02796012  0.05416435  0.61430294
   0.91162400  0.79477938  0.19819894
   0.80925755  0.59071658  0.40084226
   0.73483339  0.46721965  0.19772363
   0.66314613  0.34181647 -0.00543174
   0.37949002  0.72436482  0.60303250
   0.12899456  0.27457707  0.40136711
   0.84581107  0.66969845 -0.00966358
   0.57259883  0.13406927  0.19282867
   0.41026413  0.79296065  0.19435230
   0.45735293  0.85333494  0.79619215
   0.30064473  0.60151030  0.40519324
   0.86036068  0.73146265  0.61145171
   0.46186168  0.93075058  0.41038136
   0.17364353  0.33979793 -0.00305658
   0.24285378  0.55995772  0.79668490
   0.19497764  0.39038898  0.60045629
   0.06434148  0.14981602  0.20606798
   0.75338445  0.51227399  0.80561482
   0.68181816  0.40661361  0.60893832
   0.58894372  0.21584387  0.79192794
   0.52972730  0.07515875  0.60506611
   0.35625711  0.64532621  0.00094481
   0.22738742  0.47436086  0.19763184
Nb - Mo - Ta - Ti - V SQS               
           1
    -3.131728   -3.146865   -3.159173
     1.540119    1.575534   -7.874546
     7.786833   -7.852074   -1.552538
   Nb   Mo   Ta   Ti   V 
   6   6   5   6   6
Direct configuration=    17
   0.95592673  0.93382812  0.40272629
   0.63292174  0.26545513  0.40531301
   0.49663853  0.00396008 -0.00855498
   0.00233340 -0.00958960 -0.01498233
   0.10162433  0.20869513  0.79446526
   0.02777588  0.05399848  0.61445109
   0.91167531  0.79486169  0.19821198
   0.80923599  0.59080402  0.40078981
   0.73493836  0.46712001  0.19775546
   0.66314536  0.34179943 -0.00545668
   0.37942909  0.72435969  0.60308444
   0.12903966  0.27446113  0.40144274
   0.84597560  0.66955181 -0.00950310
   0.57265000  0.13405977  0.19284731
   0.41027749  0.79305061  0.19447695
   0.45784466  0.85332690  0.79612066
   0.30060359  0.60152595  0.40508618
   0.86031544  0.73141306  0.61125083
   0.46186439  0.93076700  0.41034542
   0.17368287  0.33975660 -0.00311061
   0.24248846  0.56021493  0.79674807
   0.19471432  0.39046314  0.60038502
   0.06463944  0.14973275  0.20605320
   0.75318181  0.51234433  0.80559994
   0.68169382  0.40652105  0.60885116
   0.58888483  0.21586171  0.79198985
   0.52951032  0.07507750  0.60512787
   0.35606522  0.64554588  0.00087985
   0.22759004  0.47436702  0.19760530
Nb - Mo - Ta - Ti - V SQS               
           1
    -3.131444   -3.145733   -3.157230
     1.540024    1.577980   -7.872746
     7.784618   -7.849725   -1.549613
   Nb   Mo   Ta   Ti   V 
   6   6   5   6   6
Direct configuration=    18
   0.95607263  0.93368986  0.40274390
   0.63286699  0.26537039  0.40549576
   0.49754981  0.00423893 -0.00835703
   0.00270929 -0.00980072 -0.01533474
   0.10118349  0.20878635  0.79446499
   0.02722307  0.05350088  0.61489555
   0.91182928  0.79510863  0.19825112
   0.80917134  0.59106633  0.40063246
   0.73525326  0.46682110  0.19785093
   0.66314302  0.34174831 -0.00553150
   0.37924630  0.72434430  0.60324027
   0.12917494  0.27411333  0.40166964
   0.84646920  0.66911194 -0.00902164
   0.57280352  0.13403129  0.19290324
   0.41031765  0.79332053  0.19485098
   0.45931996  0.85330281  0.79590619
   0.30048014  0.60157289  0.40476499
   0.86017966  0.73126424  0.61064811
   0.46187253  0.93081626  0.41023759
   0.17380088  0.33963261 -0.00327273
   0.24139251  0.56098656  0.79693759
   0.19392430  0.39068558  0.60017116
   0.06553338  0.14948296  0.20600886
   0.75257384  0.51255532  0.80555531
   0.68132071  0.40624332  0.60858961
   0.58870815  0.21591524  0.79217558
   0.52885932  0.07483375  0.60531314
   0.35548956  0.64620486  0.00068499
   0.22819795  0.47438551  0.19752566
Nb - Mo - Ta - Ti - V SQS               
           1
    -3.130875   -3.143468   -3.153342
     1.539834    1.582872   -7.869147
     7.780187   -7.845026   -1.543764
   Nb   Mo   Ta   Ti   V 
   6   6   5   6   6
Direct configuration=    19
   0.95636442  0.93341337  0.40277909
   0.63275745  0.26520098  0.40586131
   0.49937316  0.00479697 -0.00796082
   0.00346103 -0.01022307 -0.01603981
   0.10030163  0.20896868  0.79446442
   0.02611687  0.05250574  0.61578451
   0.91213751  0.79560258  0.19832951
   0.80904216  0.59159088  0.40031776
   0.73588304  0.46622338  0.19804186
   0.66313829  0.34164601 -0.00568120
   0.37888063  0.72431355  0.60355199
   0.12944537  0.27341785  0.40212348
   0.84745647  0.66823252 -0.00805852
   0.57311065  0.13397439  0.19301515
   0.41039830  0.79386059  0.19559934
   0.46227131  0.85325488  0.79547727
   0.30023313  0.60166656  0.40412241
   0.85990773  0.73096625  0.60944226
   0.46188881  0.93091472  0.41002188
   0.17403681  0.33938457 -0.00359708
   0.23920065  0.56252969  0.79731689
   0.19234393  0.39113017  0.59974331
   0.06732154  0.14898355  0.20592018
   0.75135772  0.51297715  0.80546602
   0.68057399  0.40568762  0.60806624
   0.58835478  0.21602235  0.79254717
   0.52755681  0.07434615  0.60568366
   0.35433839  0.64752263  0.00029531
   0.22941411  0.47442259  0.19736640
Nb - Mo - Ta - Ti - V SQS               
           1
    -3.136141   -3.148065   -3.159001
     1.540558    1.583284   -7.879520
     7.792290   -7.856096   -1.545962
   Nb   Mo   Ta   Ti   V 
   6   6   5   6   6
Direct configuration=    20
   0.95638562  0.93362730  0.40272435
   0.63288971  0.26506034  0.40576323
   0.49898176  0.00432302 -0.00819764
   0.00390917 -0.01024528 -0.01610321
   0.10041905  0.20886986  0.79443119
   0.02598804  0.05235641  0.61591486
   0.91216427  0.79556752  0.19828275
   0.80887213  0.59143650  0.40031312
   0.73579649  0.46652110  0.19802619
   0.66311566  0.34183803 -0.00575340
   0.37864974  0.72424132  0.60338851
   0.12935962  0.27329449  0.40217496
   0.84704558  0.66843660 -0.00812173
   0.57367153  0.13404747  0.19311395
   0.41048257  0.79400553  0.19525679
   0.46279498  0.85357640  0.79576539
   0.30069647  0.60122843  0.40440544
   0.85989421  0.73067712  0.60933552
   0.46172406  0.93093793  0.41013565
   0.17405842  0.33942239 -0.00356434
   0.23864831  0.56285413  0.79724642
   0.19223640  0.39100365  0.59974925
   0.06700850  0.14897351  0.20603327
   0.75163544  0.51286817  0.80545708
   0.68038080  0.40586132  0.60824342
   0.58819670  0.21622529  0.79259817
   0.52742298  0.07447792  0.60566432
   0.35482274  0.64741056  0.00042410
   0.22941572  0.47443628  0.19729239
Nb - Mo - Ta - Ti - V SQS               
           1
    -3.134905   -3.146987   -3.157673
     1.540388    1.583187   -7.877086
     7.789451   -7.853499   -1.545446
   Nb   Mo   Ta   Ti   V 
   6   6   5   6   6
Direct configuration=    21
   0.95638067  0.93357717  0.40273717
   0.63285872  0.26509330  0.40578621
   0.49907340  0.00443408 -0.00814216
   0.00380420 -0.01024007 -0.01608836
   0.10039154  0.20889302  0.79443898
   0.02601819  0.05239140  0.61588432
   0.91215800  0.79557574  0.19829370
   0.80891195  0.59147268  0.40031420
   0.73581679  0.46645133  0.19802986
   0.66312098  0.34179303 -0.00573649
   0.37870382  0.72425824  0.60342681
   0.12937969  0.27332340  0.40216290
   0.84714185  0.66838877 -0.00810692
   0.57354016  0.13403036  0.19309080
   0.41046286  0.79397156  0.19533703
   0.46267233  0.85350107  0.79569789
   0.30058789  0.60133112  0.40433913
   0.85989735  0.73074488  0.60936053
   0.46176265  0.93093249  0.41010900
   0.17405336  0.33941353 -0.00357201
   0.23877772  0.56277809  0.79726293
   0.19226157  0.39103330  0.59974786
   0.06708182  0.14897586  0.20600678
   0.75157038  0.51289372  0.80545917
   0.68042606  0.40582062  0.60820191
   0.58823375  0.21617773  0.79258623
   0.52745434  0.07444704  0.60566885
   0.35470927  0.64743683  0.00039392
   0.22941535  0.47443307  0.19730973
Nb - Mo - Ta - Ti - V SQS               
           1
    -3.134808   -3.146199   -3.157710
     1.538586    1.581042   -7.873692
     7.787564   -7.850462   -1.544896
   Nb   Mo   Ta   Ti   V 
   6   6   5   6   6
Direct configuration=    22
   0.95642976  0.93372364  0.40265993
   0.63296654  0.26494917  0.40569935
   0.49875208  0.00400378 -0.00833794
   0.00421731 -0.01027219 -0.01615473
   0.10052407  0.20877681  0.79439929
   0.02584911  0.05216081  0.61606450
   0.91223810  0.79555129  0.19823607
   0.80881837  0.59122724  0.40028468
   0.73567689  0.46683783  0.19801122
   0.66312240  0.34196317 -0.00581364
   0.37843830  0.72417780  0.60330069
   0.12922403  0.27320855  0.40222251
   0.84667884  0.66863489 -0.00817742
   0.57421298  0.13407391  0.19313462
   0.41056133  0.79406473  0.19497816
   0.46342703  0.85389991  0.79590751
   0.30111341  0.60088482  0.40463927
   0.85980079  0.73039167  0.60916651
   0.46157256  0.93092077  0.41024699
   0.17409544  0.33947564 -0.00356302
   0.23807191  0.56326586  0.79715290
   0.19216088  0.39079161  0.59977769
   0.06674469  0.14900753  0.20615848
   0.75186180  0.51275290  0.80547472
   0.68010064  0.40603758  0.60843159
   0.58801218  0.21646184  0.79264649
   0.52727037  0.07463277  0.60567916
   0.35534178  0.64725974  0.00051332
   0.22938310  0.47446924  0.19726110
Nb - Mo - Ta - Ti - V SQS               
           1
    -3.134786   -3.146021   -3.157718
     1.538180    1.580559   -7.872927
     7.787138   -7.849777   -1.544772
   Nb   Mo   Ta   Ti   V 
   6   6   5   6   6
Direct configuration=    23
   0.95644082  0.93375668  0.40264251
   0.63299085  0.26491667  0.40567977
   0.49867966  0.00390673 -0.00838209
   0.00431044 -0.01027944 -0.01616969