  29  29   0   0
  0.1632129E+02  0.5473281E-09  0.8209921E-09  0.1128346E-08  0.5000000E-15
  1.000000000000000E-004
  CAR 
 Nb - Mo - Ta - Ti - V SQS               
     11.60337892    -50.68803019  301      6.42016325      1.00000000
    -50.688  0.0000E+00  0.0000E+00
    -50.480  0.0000E+00  0.0000E+00
    -50.273  0.0000E+00  0.0000E+00
    -50.065  0.0000E+00  0.0000E+00
    -49.857  0.0000E+00  0.0000E+00
    -49.650 -0.5931E-35 -0.1232E-35
    -49.442 -0.2173E-27 -0.4512E-28
    -49.235 -0.9062E-21 -0.1882E-21
    -49.027 -0.4171E-15 -0.8660E-16
    -48.819 -0.2169E-10 -0.4505E-11
    -48.612 -0.1235E-06 -0.2564E-07
    -48.404 -0.7244E-04 -0.1507E-04
    -48.196 -0.3561E-02 -0.7544E-03
    -47.989  0.1012E-01  0.1347E-02
    -47.781  0.1417E+00  0.3078E-01
    -47.573  0.2818E+00  0.8928E-01
    -47.366  0.3791E+00  0.1680E+00
    -47.158  0.1683E+00  0.2029E+00
    -46.951 -0.1234E-01  0.2004E+00
    -46.743 -0.1826E-02  0.2000E+00
    -46.535 -0.1218E-04  0.2000E+00
    -46.328 -0.7839E-08  0.2000E+00
    -46.120 -0.5415E-12  0.2000E+00
    -45.912  0.0000E+00  0.2000E+00
    -45.705  0.0000E+00  0.2000E+00
    -45.497  0.0000E+00  0.2000E+00
    -45.289  0.0000E+00  0.2000E+00
    -45.082  0.0000E+00  0.2000E+00
    -44.874  0.0000E+00  0.2000E+00
    -44.667  0.0000E+00  0.2000E+00
    -44.459  0.0000E+00  0.2000E+00
    -44.251  0.0000E+00  0.2000E+00
    -44.044  0.0000E+00  0.2000E+00
    -43.836  0.0000E+00  0.2000E+00
    -43.628  0.0000E+00  0.2000E+00
    -43.421  0.0000E+00  0.2000E+00
    -43.213  0.0000E+00  0.2000E+00
    -43.005  0.0000E+00  0.2000E+00
    -42.798  0.0000E+00  0.2000E+00
    -42.590  0.0000E+00  0.2000E+00
    -42.383  0.0000E+00  0.2000E+00
    -42.175  0.0000E+00  0.2000E+00
    -41.967  0.0000E+00  0.2000E+00
    -41.760  0.0000E+00  0.2000E+00
    -41.552  0.0000E+00  0.2000E+00
    -41.344  0.0000E+00  0.2000E+00
    -41.137  0.0000E+00  0.2000E+00
    -40.929  0.0000E+00  0.2000E+00
    -40.721  0.0000E+00  0.2000E+00
    -40.514  0.0000E+00  0.2000E+00
    -40.306  0.0000E+00  0.2000E+00
    -40.098  0.0000E+00  0.2000E+00
    -39.891  0.0000E+00  0.2000E+00
    -39.683  0.0000E+00  0.2000E+00
    -39.476  0.0000E+00  0.2000E+00
    -39.268  0.0000E+00  0.2000E+00
    -39.060  0.0000E+00  0.2000E+00
    -38.853  0.0000E+00  0.2000E+00
    -38.645  0.0000E+00  0.2000E+00
    -38.437  0.0000E+00  0.2000E+00
    -38.230  0.0000E+00  0.2000E+00
    -38.022  0.0000E+00  0.2000E+00
    -37.814  0.0000E+00  0.2000E+00
    -37.607  0.0000E+00  0.2000E+00
    -37.399  0.0000E+00  0.2000E+00
    -37.192  0.0000E+00  0.2000E+00
    -36.984  0.0000E+00  0.2000E+00
    -36.776  0.0000E+00  0.2000E+00
    -36.569  0.0000E+00  0.2000E+00
    -36.361  0.0000E+00  0.2000E+00
    -36.153  0.0000E+00  0.2000E+00
    -35.946  0.0000E+00  0.2000E+00
    -35.738  0.0000E+00  0.2000E+00
    -35.530  0.0000E+00  0.2000E+00
    -35.323  0.0000E+00  0.2000E+00
    -35.115  0.0000E+00  0.2000E+00
    -34.908  0.0000E+00  0.2000E+00
    -34.700  0.0000E+00  0.2000E+00
    -34.492  0.0000E+00  0.2000E+00
    -34.285  0.0000E+00  0.2000E+00
    -34.077  0.0000E+00  0.2000E+00
    -33.869  0.0000E+00  0.2000E+00
    -33.662  0.0000E+00  0.2000E+00
    -33.454  0.0000E+00  0.2000E+00
    -33.246  0.0000E+00  0.2000E+00
    -33.039  0.0000E+00  0.2000E+00
    -32.831  0.0000E+00  0.2000E+00
    -32.624  0.0000E+00  0.2000E+00
    -32.416  0.0000E+00  0.2000E+00
    -32.208  0.0000E+00  0.2000E+00
    -32.001  0.0000E+00  0.2000E+00
    -31.793  0.0000E+00  0.2000E+00
    -31.585  0.0000E+00  0.2000E+00
    -31.378  0.0000E+00  0.2000E+00
    -31.170  0.0000E+00  0.2000E+00
    -30.962  0.0000E+00  0.2000E+00
    -30.755  0.0000E+00  0.2000E+00
    -30.547  0.0000E+00  0.2000E+00
    -30.340  0.0000E+00  0.2000E+00
    -30.132  0.0000E+00  0.2000E+00
    -29.924  0.0000E+00  0.2000E+00
    -29.717  0.0000E+00  0.2000E+00
    -29.509  0.0000E+00  0.2000E+00
    -29.301  0.0000E+00  0.2000E+00
    -29.094  0.0000E+00  0.2000E+00
    -28.886  0.0000E+00  0.2000E+00
    -28.678  0.0000E+00  0.2000E+00
    -28.471  0.0000E+00  0.2000E+00
    -28.263  0.0000E+00  0.2000E+00
    -28.055  0.0000E+00  0.2000E+00
    -27.848  0.0000E+00  0.2000E+00
    -27.640  0.0000E+00  0.2000E+00
    -27.433  0.0000E+00  0.2000E+00
    -27.225  0.0000E+00  0.2000E+00
    -27.017  0.0000E+00  0.2000E+00
    -26.810  0.0000E+00  0.2000E+00
    -26.602  0.0000E+00  0.2000E+00
    -26.394  0.0000E+00  0.2000E+00
    -26.187  0.0000E+00  0.2000E+00
    -25.979 -0.6742E-33  0.2000E+00
    -25.771 -0.1401E-25  0.2000E+00
    -25.564 -0.3315E-19  0.2000E+00
    -25.356 -0.8588E-14  0.2000E+00
    -25.149 -0.2532E-09  0.2000E+00
    -24.941 -0.8116E-06  0.2000E+00
    -24.733 -0.2686E-03  0.1999E+00
    -24.526 -0.7649E-02  0.1984E+00
    -24.318  0.2398E-01  0.2033E+00
    -24.110  0.3503E+00  0.2761E+00
    -23.903  0.5816E+00  0.3968E+00
    -23.695  0.6268E+00  0.5270E+00
    -23.487  0.7248E+00  0.6775E+00
    -23.280  0.3615E+00  0.7525E+00
    -23.072  0.2129E+00  0.7967E+00
    -22.865  0.2165E-01  0.8012E+00
    -22.657 -0.5671E-02  0.8000E+00
    -22.449 -0.1602E-03  0.8000E+00
    -22.242 -0.3801E-06  0.8000E+00
    -22.034 -0.9323E-10  0.8000E+00
    -21.826 -0.2482E-14  0.8000E+00
    -21.619  0.0000E+00  0.8000E+00
    -21.411  0.0000E+00  0.8000E+00
    -21.203  0.0000E+00  0.8000E+00
    -20.996  0.0000E+00  0.8000E+00
    -20.788  0.0000E+00  0.8000E+00
    -20.581  0.0000E+00  0.8000E+00
    -20.373  0.0000E+00  0.8000E+00
    -20.165  0.0000E+00  0.8000E+00
    -19.958  0.0000E+00  0.8000E+00
    -19.750  0.0000E+00  0.8000E+00
    -19.542  0.0000E+00  0.8000E+00
    -19.335  0.0000E+00  0.8000E+00
    -19.127  0.0000E+00  0.8000E+00
    -18.919  0.0000E+00  0.8000E+00
    -18.712  0.0000E+00  0.8000E+00
    -18.504  0.0000E+00  0.8000E+00
    -18.296  0.0000E+00  0.8000E+00
    -18.089  0.0000E+00  0.8000E+00
    -17.881  0.0000E+00  0.8000E+00
    -17.674  0.0000E+00  0.8000E+00
    -17.466  0.0000E+00  0.8000E+00
    -17.258  0.0000E+00  0.8000E+00
    -17.051  0.0000E+00  0.8000E+00
    -16.843  0.0000E+00  0.8000E+00
    -16.635  0.0000E+00  0.8000E+00
    -16.428  0.0000E+00  0.8000E+00
    -16.220  0.0000E+00  0.8000E+00
    -16.012  0.0000E+00  0.8000E+00
    -15.805  0.0000E+00  0.8000E+00
    -15.597  0.0000E+00  0.8000E+00
    -15.390  0.0000E+00  0.8000E+00
    -15.182  0.0000E+00  0.8000E+00
    -14.974  0.0000E+00  0.8000E+00
    -14.767  0.0000E+00  0.8000E+00
    -14.559  0.0000E+00  0.8000E+00
    -14.351  0.0000E+00  0.8000E+00
    -14.144  0.0000E+00  0.8000E+00
    -13.936  0.0000E+00  0.8000E+00
    -13.728  0.0000E+00  0.8000E+00
    -13.521  0.0000E+00  0.8000E+00
    -13.313  0.0000E+00  0.8000E+00
    -13.106  0.0000E+00  0.8000E+00
    -12.898  0.0000E+00  0.8000E+00
    -12.690  0.0000E+00  0.8000E+00
    -12.483  0.0000E+00  0.8000E+00
    -12.275  0.0000E+00  0.8000E+00
    -12.067  0.0000E+00  0.8000E+00
    -11.860  0.0000E+00  0.8000E+00
    -11.652  0.0000E+00  0.8000E+00
    -11.444  0.0000E+00  0.8000E+00
    -11.237  0.0000E+00  0.8000E+00
    -11.029  0.0000E+00  0.8000E+00
    -10.822  0.0000E+00  0.8000E+00
    -10.614  0.0000E+00  0.8000E+00
    -10.406  0.0000E+00  0.8000E+00
    -10.199  0.0000E+00  0.8000E+00
     -9.991  0.0000E+00  0.8000E+00
     -9.783  0.0000E+00  0.8000E+00
     -9.576  0.0000E+00  0.8000E+00
     -9.368  0.0000E+00  0.8000E+00
     -9.160  0.0000E+00  0.8000E+00
     -8.953  0.0000E+00  0.8000E+00
     -8.745  0.0000E+00  0.8000E+00
     -8.538  0.0000E+00  0.8000E+00
     -8.330  0.0000E+00  0.8000E+00
     -8.122  0.0000E+00  0.8000E+00
     -7.915  0.0000E+00  0.8000E+00
     -7.707  0.0000E+00  0.8000E+00
     -7.499  0.0000E+00  0.8000E+00
     -7.292  0.0000E+00  0.8000E+00
     -7.084  0.0000E+00  0.8000E+00
     -6.876  0.0000E+00  0.8000E+00
     -6.669  0.0000E+00  0.8000E+00
     -6.461  0.0000E+00  0.8000E+00
     -6.253  0.0000E+00  0.8000E+00
     -6.046  0.0000E+00  0.8000E+00
     -5.838  0.0000E+00  0.8000E+00
     -5.631  0.0000E+00  0.8000E+00
     -5.423  0.0000E+00  0.8000E+00
     -5.215  0.0000E+00  0.8000E+00
     -5.008  0.0000E+00  0.8000E+00
     -4.800  0.0000E+00  0.8000E+00
     -4.592  0.0000E+00  0.8000E+00
     -4.385  0.0000E+00  0.8000E+00
     -4.177  0.0000E+00  0.8000E+00
     -3.969  0.0000E+00  0.8000E+00
     -3.762  0.0000E+00  0.8000E+00
     -3.554  0.0000E+00  0.8000E+00
     -3.347  0.0000E+00  0.8000E+00
     -3.139  0.0000E+00  0.8000E+00
     -2.931  0.0000E+00  0.8000E+00
     -2.724  0.0000E+00  0.8000E+00
     -2.516  0.0000E+00  0.8000E+00
     -2.308  0.0000E+00  0.8000E+00
     -2.101 -0.7782E-34  0.8000E+00
     -1.893 -0.1102E-26  0.8000E+00
     -1.685 -0.1809E-20  0.8000E+00
     -1.478 -0.3340E-15  0.8000E+00
     -1.270 -0.7339E-11  0.8000E+00
     -1.063 -0.1880E-07  0.8000E+00
     -0.855 -0.5605E-05  0.8000E+00
     -0.647 -0.1807E-03  0.8000E+00
     -0.440  0.2020E-03  0.8000E+00
     -0.232  0.9365E-02  0.8019E+00
     -0.024  0.2307E-01  0.8067E+00
      0.183  0.2872E-01  0.8127E+00
      0.391  0.4230E-01  0.8215E+00
      0.599  0.3867E-01  0.8295E+00
      0.806  0.4437E-01  0.8387E+00
      1.014  0.6144E-01  0.8515E+00
      1.221  0.6214E-01  0.8644E+00
      1.429  0.7406E-01  0.8798E+00
      1.637  0.8289E-01  0.8970E+00
      1.844  0.1043E+00  0.9186E+00
      2.052  0.1079E+00  0.9410E+00
      2.260  0.1536E+00  0.9729E+00
      2.467  0.2718E+00  0.1029E+01
      2.675  0.4052E+00  0.1113E+01
      2.883  0.4868E+00  0.1215E+01
      3.090  0.5101E+00  0.1321E+01
      3.298  0.5773E+00  0.1440E+01
      3.505  0.6139E+00  0.1568E+01
      3.713  0.6345E+00  0.1700E+01
      3.921  0.6485E+00  0.1834E+01
      4.128  0.5866E+00  0.1956E+01
      4.336  0.5204E+00  0.2064E+01
      4.544  0.5555E+00  0.2179E+01
      4.751  0.7044E+00  0.2326E+01
      4.959  0.8135E+00  0.2495E+01
      5.167  0.8354E+00  0.2668E+01
      5.374  0.8355E+00  0.2842E+01
      5.582  0.8141E+00  0.3011E+01
      5.790  0.8256E+00  0.3182E+01
      5.997  0.8477E+00  0.3358E+01
      6.205  0.8362E+00  0.3532E+01
      6.412  0.7829E+00  0.3694E+01
      6.620  0.6991E+00  0.3839E+01
      6.828  0.5805E+00  0.3960E+01
      7.035  0.4358E+00  0.4050E+01
      7.243  0.3771E+00  0.4129E+01
      7.451  0.3775E+00  0.4207E+01
      7.658  0.3954E+00  0.4289E+01
      7.866  0.4493E+00  0.4382E+01
      8.074  0.5397E+00  0.4495E+01
      8.281  0.6271E+00  0.4625E+01
      8.489  0.5445E+00  0.4738E+01
      8.696  0.2748E+00  0.4795E+01
      8.904  0.3098E-01  0.4801E+01
      9.112 -0.5758E-02  0.4800E+01
      9.319 -0.4346E-03  0.4800E+01
      9.527 -0.3541E-05  0.4800E+01
      9.735 -0.3655E-08  0.4800E+01
      9.942 -0.4679E-12  0.4800E+01
     10.150 -0.6485E-17  0.4800E+01
     10.358  0.0000E+00  0.4800E+01
     10.565  0.0000E+00  0.4800E+01
     10.773  0.0000E+00  0.4800E+01
     10.980  0.0000E+00  0.4800E+01
     11.188  0.0000E+00  0.4800E+01
     11.396  0.0000E+00  0.4800E+01
     11.603  0.0000E+00  0.4800E+01
