   29   29   50    1
  0.1632129E+02  0.5473281E-09  0.8209921E-09  0.1128346E-08  0.5000000E-15
  1.000000000000000E-004
  CAR 
 Nb - Mo - Ta - Ti - V SQS               
    185    172    120
 
  0.0000000E+00  0.0000000E+00  0.0000000E+00  0.2915452E-02
    1      -47.856603   1.000000
    2      -47.626789   1.000000
    3      -47.580346   1.000000
    4      -47.391721   1.000000
    5      -47.371937   1.000000
    6      -24.241115   1.000000
    7      -24.115826   1.000000
    8      -24.062361   1.000000
    9      -24.031935   1.000000
   10      -23.965454   1.000000
   11      -23.814371   1.000000
   12      -23.785823   1.000000
   13      -23.732956   1.000000
   14      -23.681648   1.000000
   15      -23.595863   1.000000
   16      -23.557158   1.000000
   17      -23.547758   1.000000
   18      -23.467969   1.000000
   19      -23.286750   1.000000
   20      -23.171558   1.000000
   21       -0.403098   1.000000
   22        0.889574   1.000000
   23        1.219153   1.000000
   24        2.045754   1.000000
   25        2.180474   1.000000
   26        2.301425   1.000000
   27        2.324751   1.000000
   28        2.514919   1.000000
   29        2.546187   1.000000
   30        2.589240   1.000000
   31        2.721520   1.000000
   32        2.789033   1.000000
   33        2.827636   1.000000
   34        2.914289   1.000000
   35        2.941393   1.000000
   36        2.988682   1.000000
   37        3.065918   1.000000
   38        3.226578   1.000000
   39        3.329133   1.000000
   40        3.364856   1.000000
   41        3.465454   1.000000
   42        3.488953   1.000000
   43        3.558831   1.000000
   44        3.581991   1.000000
   45        3.640339   1.000000
   46        3.692065   1.000000
   47        3.724593   1.000000
   48        3.876146   1.000000
   49        3.935483   1.000000
   50        4.029193   1.000000
   51        4.174283   1.000000
   52        4.205159   1.000000
   53        4.273280   1.000000
   54        4.350337   1.000000
   55        4.446691   1.000000
   56        4.482974   1.000000
   57        4.573220   1.000000
   58        4.617391   1.000000
   59        4.634542   1.000000
   60        4.760559   1.000000
   61        4.772026   1.000000
   62        4.820090   1.000000
   63        4.888431   1.000000
   64        4.925990   1.000000
   65        5.009920   1.000000
   66        5.050447   1.000000
   67        5.091952   1.000000
   68        5.117809   1.000000
   69        5.200324   1.000000
   70        5.244738   1.000000
   71        5.291993   1.000000
   72        5.340363   1.000000
   73        5.400011   1.000000
   74        5.484033   1.000000
   75        5.547544   1.000000
   76        5.684975   1.000001
   77        5.726591   1.000005
   78        5.818503   1.000089
   79        5.858732   1.000264
   80        5.865112   1.000310
   81        5.947824   1.002100
   82        5.986758   1.004493
   83        5.993281   1.005056
   84        6.017392   1.007643
   85        6.125193   1.028757
   86        6.139721   1.031691
   87        6.211844   1.028923
   88        6.249891   1.002045
   89        6.419740   0.501793
   90        6.487145   0.233431
   91        6.497483   0.198362
   92        6.574175   0.018014
   93        6.640220  -0.032648
   94        6.740705  -0.022941
   95        6.781582  -0.014160
   96        6.874678  -0.003009
   97        6.960173  -0.000452
   98        7.005556  -0.000140
   99        7.113779  -0.000005
  100        7.214475  -0.000000
  101        7.348630  -0.000000
  102        7.459066  -0.000000
  103        7.532365  -0.000000
  104        7.598800  -0.000000
  105        7.874026  -0.000000
  106        8.011852  -0.000000
  107        8.050010  -0.000000
  108        8.131457  -0.000000
  109        8.253733  -0.000000
  110        8.321914  -0.000000
  111        8.329249  -0.000000
  112        8.424242  -0.000000
  113        8.445864  -0.000000
  114        8.492754  -0.000000
  115        8.519883  -0.000000
  116        8.585836  -0.000000
  117        8.595825  -0.000000
  118        8.614682  -0.000000
  119        8.647308  -0.000000
  120        8.707623  -0.000000
 
  0.1428571E+00  0.0000000E+00 -0.1561251E-16  0.5830904E-02
    1      -47.856597   1.000000
    2      -47.626320   1.000000
    3      -47.580211   1.000000
    4      -47.391641   1.000000
    5      -47.371874   1.000000
    6      -24.240605   1.000000
    7      -24.114489   1.000000
    8      -24.061792   1.000000
    9      -24.032054   1.000000
   10      -23.965481   1.000000
   11      -23.816253   1.000000
   12      -23.788986   1.000000
   13      -23.734292   1.000000
   14      -23.682546   1.000000
   15      -23.596703   1.000000
   16      -23.558562   1.000000
   17      -23.549505   1.000000
   18      -23.468738   1.000000
   19      -23.291431   1.000000
   20      -23.171977   1.000000
   21       -0.237354   1.000000
   22        1.038816   1.000000
   23        1.360161   1.000000
   24        2.053463   1.000000
   25        2.323001   1.000000
   26        2.408065   1.000000
   27        2.447406   1.000000
   28        2.610534   1.000000
   29        2.617102   1.000000
   30        2.671197   1.000000
   31        2.795227   1.000000
   32        2.863560   1.000000
   33        2.923304   1.000000
   34        2.975149   1.000000
   35        3.068521   1.000000
   36        3.106934   1.000000
   37        3.133403   1.000000
   38        3.255141   1.000000
   39        3.347988   1.000000
   40        3.370955   1.000000
   41        3.460824   1.000000
   42        3.547217   1.000000
   43        3.595946   1.000000
   44        3.657160   1.000000
   45        3.719625   1.000000
   46        3.771719   1.000000
   47        3.839272   1.000000
   48        3.927792   1.000000
   49        3.988759   1.000000
   50        4.063900   1.000000
   51        4.110795   1.000000
   52        4.231058   1.000000
   53        4.277048   1.000000
   54        4.375400   1.000000
   55        4.488734   1.000000
   56        4.513979   1.000000
   57        4.589742   1.000000
   58        4.657082   1.000000
   59        4.711916   1.000000
   60        4.758882   1.000000
   61        4.842876   1.000000
   62        4.868408   1.000000
   63        4.936809   1.000000
   64        4.963546   1.000000
   65        5.016597   1.000000
   66        5.094984   1.000000
   67        5.149813   1.000000
   68        5.209873   1.000000
   69        5.232655   1.000000
   70        5.284549   1.000000
   71        5.318054   1.000000
   72        5.343976   1.000000
   73        5.428479   1.000000
   74        5.465741   1.000000
   75        5.567681   1.000000
   76        5.621074   1.000000
   77        5.677494   1.000001
   78        5.716764   1.000004
   79        5.762060   1.000017
   80        5.839094   1.000157
   81        5.900668   1.000741
   82        5.932930   1.001533
   83        5.969836   1.003265
   84        6.074525   1.017336
   85        6.103854   1.023920
   86        6.158011   1.034446
   87        6.211433   1.029084
   88        6.268173   0.979081
   89        6.301775   0.916366
   90        6.362185   0.734271
   91        6.405142   0.563363
   92        6.461182   0.330417
   93        6.564235   0.033219
   94        6.642309  -0.033131
   95        6.662606  -0.035433
   96        6.771555  -0.016139
   97        6.841656  -0.005564
   98        6.913134  -0.001353
   99        6.976650  -0.000299
  100        7.092144  -0.000011
  101        7.242268  -0.000000
  102        7.273323  -0.000000
  103        7.350976  -0.000000
  104        7.418294  -0.000000
  105        7.700968  -0.000000
  106        7.773928  -0.000000
  107        7.862628  -0.000000
  108        7.959329  -0.000000
  109        8.021984  -0.000000
  110        8.060930  -0.000000
  111        8.124667  -0.000000
  112        8.192724  -0.000000
  113        8.265416  -0.000000
  114        8.301805  -0.000000
  115        8.379675  -0.000000
  116        8.409679  -0.000000
  117        8.489990  -0.000000
  118        8.526895  -0.000000
  119        8.611295  -0.000000
  120        8.633087  -0.000000
 
  0.2857143E+00  0.1387779E-16  0.3469447E-17  0.5830904E-02
    1      -47.856586   1.000000
    2      -47.625264   1.000000
    3      -47.579911   1.000000
    4      -47.391464   1.000000
    5      -47.371732   1.000000
    6      -24.239595   1.000000
    7      -24.111541   1.000000
    8      -24.060267   1.000000
    9      -24.032323   1.000000
   10      -23.965541   1.000000
   11      -23.821388   1.000000
   12      -23.795264   1.000000
   13      -23.737351   1.000000
   14      -23.684364   1.000000
   15      -23.598859   1.000000
   16      -23.561601   1.000000
   17      -23.553370   1.000000
   18      -23.470398   1.000000
   19      -23.302114   1.000000
   20      -23.172867   1.000000
   21        0.234362   1.000000
   22        1.439076   1.000000
   23        1.736325   1.000000
   24        2.171021   1.000000
   25        2.455359   1.000000
   26        2.614462   1.000000
   27        2.679381   1.000000
   28        2.766658   1.000000
   29        2.800965   1.000000
   30        2.872424   1.000000
   31        2.993071   1.000000
   32        3.069077   1.000000
   33        3.097222   1.000000
   34        3.132952   1.000000
   35        3.236521   1.000000
   36        3.263696   1.000000
   37        3.306421   1.000000
   38        3.343965   1.000000
   39        3.481726   1.000000
   40        3.534361   1.000000
   41        3.568055   1.000000
   42        3.650241   1.000000
   43        3.727840   1.000000
   44        3.782095   1.000000
   45        3.893522   1.000000
   46        3.937845   1.000000
   47        4.011680   1.000000
   48        4.045121   1.000000
   49        4.091013   1.000000
   50        4.218910   1.000000
   51        4.245173   1.000000
   52        4.308158   1.000000
   53        4.348061   1.000000
   54        4.459530   1.000000
   55        4.533722   1.000000
   56        4.601712   1.000000
   57        4.616767   1.000000
   58        4.736765   1.000000
   59        4.764927   1.000000
   60        4.835358   1.000000
   61        4.883776   1.000000
   62        4.906800   1.000000
   63        4.983445   1.000000
   64        5.024501   1.000000
   65        5.061320   1.000000
   66        5.093515   1.000000
   67        5.182508   1.000000
   68        5.259631   1.000000
   69        5.303300   1.000000
   70        5.337563   1.000000
   71        5.394426   1.000000
   72        5.414492   1.000000
   73        5.445655   1.000000
   74        5.498609   1.000000
   75        5.548522   1.000000
   76        5.573621   1.000000
   77        5.593137   1.000000
   78        5.650252   1.000000
   79        5.727410   1.000006
   80        5.773531   1.000024
   81        5.833894   1.000136
   82        5.874776   1.000396
   83        5.904906   1.000818
   84        5.921041   1.001181
   85        6.030624   1.009432
   86        6.063904   1.015161
   87        6.112892   1.026006
   88        6.164026   1.035011
   89        6.187767   1.034798
   90        6.297298   0.926340
   91        6.343427   0.799718
   92        6.361114   0.738194
   93        6.416803   0.514215
   94        6.508543   0.163463
   95        6.538715   0.083261
   96        6.600964  -0.012084
   97        6.620445  -0.025273
   98        6.687831  -0.033762
   99        6.801157  -0.010735
  100        6.823333  -0.007593
  101        6.924647  -0.001047
  102        6.962491  -0.000427
  103        7.049344  -0.000040
  104        7.148557  -0.000002
  105        7.233653  -0.000000
  106        7.399485  -0.000000
  107        7.458725  -0.000000
  108        7.500708  -0.000000
  109        7.622784  -0.000000
  110        7.712543  -0.000000
  111        7.751469  -0.000000
  112        7.819205  -0.000000
  113        7.922983  -0.000000
  114        8.007910  -0.000000
  115        8.086604  -0.000000
  116        8.147823  -0.000000
  117        8.244160  -0.000000
  118        8.313977  -0.000000
  119        8.389985  -0.000000
  120        8.461190  -0.000000
 
  0.4285714E+00  0.5551115E-16 -0.4163336E-16  0.5830904E-02
    1      -47.856576   1.000000
    2      -47.624413   1.000000
    3      -47.579672   1.000000
    4      -47.391325   1.000000
    5      -47.371617   1.000000
    6      -24.238924   1.000000
    7      -24.109261   1.000000
    8      -24.058758   1.000000
    9      -24.032542   1.000000
   10      -23.965588   1.000000
   11      -23.826444   1.000000
   12      -23.799421   1.000000
   13      -23.739828   1.000000
   14      -23.685649   1.000000
   15      -23.600873   1.000000
   16      -23.563883   1.000000
   17      -23.556402   1.000000
   18      -23.471650   1.000000
   19      -23.310847   1.000000
   20      -23.173531   1.000000
   21        0.928545   1.000000
   22        1.664620   1.000000
   23        2.078155   1.000000
   24        2.289074   1.000000
   25        2.381417   1.000000
   26        2.680783   1.000000
   27        2.739141   1.000000
   28        2.847200   1.000000
   29        2.976933   1.000000
   30        3.069756   1.000000
   31        3.115880   1.000000
   32        3.153051   1.000000
   33        3.207735   1.000000
   34        3.295575   1.000000
   35        3.355737   1.000000
   36        3.457651   1.000000
   37        3.498498   1.000000
   38        3.532864   1.000000
   39        3.610648   1.000000
   40        3.674282   1.000000
   41        3.729215   1.000000
   42        3.827397   1.000000
   43        3.885491   1.000000
   44        3.953827   1.000000
   45        3.999413   1.000000
   46        4.064133   1.000000
   47        4.126529   1.000000
   48        4.191941   1.000000
   49        4.271670   1.000000
   50        4.317645   1.000000
   51        4.420801   1.000000
   52        4.455862   1.000000
   53        4.526584   1.000000
   54        4.539056   1.000000
   55        4.590364   1.000000
   56        4.649389   1.000000
   57        4.674010   1.000000
   58        4.711197   1.000000
   59        4.767462   1.000000
   60        4.810186   1.000000
   61        4.864299   1.000000
   62        4.893870   1.000000
   63        4.968420   1.000000
   64        5.034012   1.000000
   65        5.067496   1.000000
   66        5.097793   1.000000
   67        5.137938   1.000000
   68        5.228583   1.000000
   69        5.259617   1.000000
   70        5.306395   1.000000
   71        5.359809   1.000000
   72        5.383467   1.000000
   73        5.427405   1.000000
   74        5.462671   1.000000
   75        5.521450   1.000000
   76        5.595351   1.000000
   77        5.635955   1.000000
   78        5.677851   1.000001
   79        5.721723   1.000005
   80        5.736301   1.000007
   81        5.772431   1.000023
   82        5.858264   1.000260
   83        5.893217   1.000621
   84        5.898154   1.000698
   85        5.974245   1.003555
   86        6.018549   1.007788
   87        6.075628   1.017570
   88        6.092732   1.021357
   89        6.141064   1.031936
   90        6.165431   1.035113
   91        6.250894   1.000973
   92        6.265998   0.982203
   93        6.329144   0.844448
   94        6.383040   0.654121
   95        6.467411   0.306130
   96        6.504689   0.175306
   97        6.562333   0.036397
   98        6.583006   0.006405
   99        6.663556  -0.035448
  100        6.761024  -0.018360
  101        6.794212  -0.011881
  102        6.860292  -0.003966
  103        6.899988  -0.001796
  104        6.950389  -0.000574
  105        7.036169  -0.000059
  106        7.181273  -0.000001
  107        7.239332  -0.000000
  108        7.373792  -0.000000
  109        7.413189  -0.000000
  110        7.499230  -0.000000
  111        7.584057  -0.000000
  112        7.607028  -0.000000
  113        7.722667  -0.000000
  114        7.830428  -0.000000
  115        7.937450  -0.000000
  116        7.981283  -0.000000
  117        8.066924  -0.000000
  118        8.119490  -0.000000
  119        8.180362  -0.000000
  120        8.227813  -0.000000
 
 -0.6938894E-17  0.1428571E+00  0.1040834E-16  0.5830904E-02
    1      -47.856600   1.000000
    2      -47.626633   1.000000
    3      -47.580358   1.000000
    4      -47.391792   1.000000
    5      -47.372012   1.000000
    6      -24.239876   1.000000
    7      -24.114037   1.000000
    8      -24.061435   1.000000
    9      -24.031952   1.000000
   10      -23.965502   1.000000
   11      -23.814371   1.000000
   12      -23.785916   1.000000
   13      -23.732950   1.000000
   14      -23.681701   1.000000
   15      -23.595796   1.000000
   16      -23.557166   1.000000
   17      -23.547721   1.000000
   18      -23.467974   1.000000
   19      -23.291150   1.000000
   20      -23.171825   1.000000
   21       -0.332921   1.000000
   22        0.928573   1.000000
   23        1.284771   1.000000
   24        1.780360   1.000000
   25        2.234894   1.000000
   26        2.289690   1.000000
   27        2.327723   1.000000
   28        2.527035   1.000000
   29        2.539045   1.000000
   30        2.590558   1.000000
   31        2.697212   1.000000
   32        2.738320   1.000000
   33        2.786369   1.000000
   34        2.871539   1.000000
   35        2.953752   1.000000
   36        3.057550   1.000000
   37        3.105435   1.000000
   38        3.260784   1.000000
   39        3.316510   1.000000
   40        3.368347   1.000000
   41        3.431574   1.000000
   42        3.500488   1.000000
   43        3.550497   1.000000
   44        3.614247   1.000000
   45        3.653037   1.000000
   46        3.708933   1.000000
   47        3.822554   1.000000
   48        3.880820   1.000000
   49        3.987971   1.000000
   50        4.023383   1.000000
   51        4.105548   1.000000
   52        4.183704   1.000000
   53        4.231641   1.000000
   54        4.375300   1.000000
   55        4.475582   1.000000
   56        4.509192   1.000000
   57        4.573028   1.000000
   58        4.661372   1.000000
   59        4.710229   1.000000
   60        4.756455   1.000000
   61        4.826026   1.000000
   62        4.865243   1.000000
   63        4.898160   1.000000
   64        4.958089   1.000000
   65        5.015695   1.000000
   66        5.045164   1.000000
   67        5.131069   1.000000
   68        5.151599   1.000000
   69        5.195091   1.000000
   70        5.258161   1.000000
   71        5.340749   1.000000
   72        5.363341   1.000000
   73        5.389532   1.000000
   74        5.477602   1.000000
   75        5.564852   1.000000
   76        5.635597   1.000000
   77        5.744394   1.000010
   78        5.818853   1.000090
   79        5.835027   1.000141
   80        5.875345   1.000402
   81        5.933950   1.001567
   82        5.960329   1.002709
   83        5.977992   1.003817
   84        6.035679   1.010189
   85        6.080349   1.018588
   86        6.130137   1.029806
   87        6.162293   1.034870
   88        6.228117   1.020493
   89        6.320431   0.869360
   90        6.353671   0.764856
   91        6.469745   0.297182
   92        6.521414   0.126485
   93        6.643511  -0.033385
   94        6.708008  -0.030254
   95        6.779011  -0.014654
   96        6.850603  -0.004742
   97        6.931957  -0.000886
   98        7.101606  -0.000008
   99        7.161695  -0.000001
  100        7.334386  -0.000000
  101        7.401772  -0.000000
  102        7.452729  -0.000000
  103        7.516888  -0.000000
  104        7.566246  -0.000000
  105        7.785586  -0.000000
  106        7.900675  -0.000000
  107        7.988817  -0.000000
  108        8.053868  -0.000000
  109        8.100562  -0.000000
  110        8.140338  -0.000000
  111        8.255900  -0.000000
  112        8.314846  -0.000000
  113        8.365985  -0.000000
  114        8.422398  -0.000000
  115        8.487286  -0.000000
  116        8.515134  -0.000000
  117        8.548673  -0.000000
  118        8.579924  -0.000000
  119        8.625010  -0.000000
  120        8.663998  -0.000000
 
  0.1428571E+00  0.1428571E+00 -0.1387779E-16  0.5830904E-02
    1      -47.856599   1.000000
    2      -47.626469   1.000000
    3      -47.580199   1.000000
    4      -47.391574   1.000000
    5      -47.371801   1.000000
    6      -24.241794   1.000000
    7      -24.116262   1.000000
    8      -24.062683   1.000000
    9      -24.032037   1.000000
   10      -23.965445   1.000000
   11      -23.816272   1.000000
   12      -23.788979   1.000000
   13      -23.734294   1.000000
   14      -23.682512   1.000000
   15      -23.596750   1.000000
   16      -23.558534   1.000000
   17      -23.549458   1.000000
   18      -23.468731   1.000000
   19      -23.287171   1.000000
   20      -23.171732   1.000000
   21       -0.237668   1.000000
   22        1.018348   1.000000
   23        1.373928   1.000000
   24        2.079316   1.000000
   25        2.281122   1.000000
   26        2.409579   1.000000
   27        2.435337   1.000000
   28        2.555726   1.000000
   29        2.602846   1.000000
   30        2.651510   1.000000
   31        2.731120   1.000000
   32        2.810236   1.000000
   33        2.874416   1.000000
   34        2.990435   1.000000
   35        3.040611   1.000000
   36        3.083029   1.000000
   37        3.146536   1.000000
   38        3.256061   1.000000
   39        3.376497   1.000000
   40        3.444845   1.000000
   41        3.520575   1.000000
   42        3.544957   1.000000
   43        3.637824   1.000000
   44        3.658686   1.000000
   45        3.670313   1.000000
   46        3.716803   1.000000
   47        3.817356   1.000000
   48        3.924808   1.000000
   49        4.015211   1.000000
   50        4.072005   1.000000
   51        4.152682   1.000000
   52        4.208767   1.000000
   53        4.330356   1.000000
   54        4.431133   1.000000
   55        4.501638   1.000000
   56        4.551717   1.000000
   57        4.598115   1.000000
   58        4.639469   1.000000
   59        4.727949   1.000000
   60        4.756790   1.000000
   61        4.784310   1.000000
   62        4.872778   1.000000
   63        4.904092   1.000000
   64        4.952193   1.000000
   65        4.992821   1.000000
   66        5.072591   1.000000
   67        5.091258   1.000000
   68        5.127860   1.000000
   69        5.217205   1.000000
   70        5.246107   1.000000
   71        5.339987   1.000000
   72        5.348090   1.000000
   73        5.417022   1.000000
   74        5.453164   1.000000
   75        5.520797   1.000000
   76        5.575593   1.000000
   77        5.668045   1.000001
   78        5.737076   1.000008
   79        5.775111   1.000025
   80        5.808159   1.000067
   81        5.889885   1.000573
   82        5.943493   1.001919
   83        5.984383   1.004300
   84        6.056626   1.013761
   85        6.080502   1.018621
   86        6.167722   1.035252
   87        6.223311   1.023416
   88        6.262178   0.987426
   89        6.308073   0.901477
   90        6.407971   0.551483
   91        6.484815   0.241636
   92        6.547832   0.063522
   93        6.600560  -0.011739
   94        6.670429  -0.035353
   95        6.711009  -0.029635
   96        6.824225  -0.007483
   97        6.844993  -0.005245
   98        6.936786  -0.000792
   99        7.026584  -0.000078
  100        7.110548  -0.000006
  101        7.185333  -0.000000
  102        7.285698  -0.000000
  103        7.362164  -0.000000
  104        7.384622  -0.000000
  105        7.670994  -0.000000
  106        7.753599  -0.000000
  107        7.864398  -0.000000
  108        7.955464  -0.000000
  109        8.066148  -0.000000
  110        8.137700  -0.000000
  111        8.301749  -0.000000
  112        8.359015  -0.000000
  113        8.429758  -0.000000
  114        8.460377  -0.000000
  115        8.480571  -0.000000
  116        8.510327  -0.000000
  117        8.557792  -0.000000
  118        8.617551  -0.000000
  119        8.656484  -0.000000
  120        8.717167  -0.000000
 
  0.2857143E+00  0.1428571E+00  0.2775558E-16  0.5830904E-02
    1      -47.856590   1.000000
    2      -47.625604   1.000000
    3      -47.579882   1.000000
    4      -47.391308   1.000000
    5      -47.371569   1.000000
    6      -24.242184   1.000000
    7      -24.115505   1.000000
    8      -24.062559   1.000000
    9      -24.032283   1.000000
   10      -23.965454   1.000000
   11      -23.821448   1.000000
   12      -23.795194   1.000000
   13      -23.737356   1.000000
   14      -23.684275   1.000000
   15      -23.598964   1.000000
   16      -23.561577   1.000000
   17      -23.553294   1.000000
   18      -23.470379   1.000000
   19      -23.292257   1.000000
   20      -23.172351   1.000000
   21        0.169393   1.000000
   22        1.356378   1.000000
   23        1.698459   1.000000
   24        2.312577   1.000000
   25        2.389654   1.000000
   26        2.539566   1.000000
   27        2.682916   1.000000
   28        2.760914   1.000000
   29        2.785311   1.000000
   30        2.851395   1.000000
   31        2.944330   1.000000
   32        3.000364   1.000000
   33        3.120947   1.000000
   34        3.172237   1.000000
   35        3.207093   1.000000
   36        3.278848   1.000000
   37        3.335610   1.000000
   38        3.367927   1.000000
   39        3.439679   1.000000
   40        3.579219   1.000000
   41        3.607977   1.000000
   42        3.679970   1.000000
   43        3.752875   1.000000
   44        3.798158   1.000000
   45        3.861092   1.000000
   46        3.914329   1.000000
   47        3.974332   1.000000
   48        3.992920   1.000000
   49        4.058522   1.000000
   50        4.123334   1.000000
   51        4.170930   1.000000
   52        4.333915   1.000000
   53        4.406435   1.000000
   54        4.511339   1.000000
   55        4.563893   1.000000
   56        4.602854   1.000000
   57        4.664014   1.000000
   58        4.736695   1.000000
   59        4.765816   1.000000
   60        4.816849   1.000000
   61        4.857028   1.000000
   62        4.904898   1.000000
   63        4.952077   1.000000
   64        4.998107   1.000000
   65        5.040211   1.000000
   66        5.095186   1.000000
   67        5.111190   1.000000
   68        5.185920   1.000000
   69        5.197482   1.000000
   70        5.271229   1.000000
   71        5.338495   1.000000
   72        5.395906   1.000000
   73        5.417415   1.000000
   74        5.467783   1.000000
   75        5.520321   1.000000
   76        5.587768   1.000000
   77        5.624874   1.000000
   78        5.710726   1.000003
   79        5.767169   1.000020
   80        5.789579   1.000039
   81        5.850507   1.000213
   82        5.882968   1.000485
   83        5.926848   1.001343
   84        5.973665   1.003515
   85        6.050055   1.012566
   86        6.074527   1.017337
   87        6.111747   1.025743
   88        6.158044   1.034450
   89        6.215810   1.027241
   90        6.273782   0.970521
   91        6.326729   0.851538
   92        6.361189   0.737919
   93        6.409395   0.545490
   94        6.474468   0.279342
   95        6.513236   0.149515
   96        6.557910   0.044121
   97        6.622079  -0.026093
   98        6.694825  -0.032702
   99        6.783643  -0.013772
  100        6.853300  -0.004515
  101        6.890054  -0.002209
  102        7.033242  -0.000064
  103        7.057137  -0.000032
  104        7.177309  -0.000001
  105        7.330837  -0.000000
  106        7.499750  -0.000000
  107        7.548378  -0.000000
  108        7.748430  -0.000000
  109        7.824963  -0.000000
  110        7.944129  -0.000000
  111        8.004687  -0.000000
  112        8.097229  -0.000000
  113        8.126672  -0.000000
  114        8.164796  -0.000000
  115        8.254443  -0.000000
  116        8.315085  -0.000000
  117        8.339754  -0.000000
  118        8.394451  -0.000000
  119        8.432025  -0.000000
  120        8.488848  -0.000000
 
  0.4285714E+00  0.1428571E+00 -0.2081668E-16  0.5830904E-02
    1      -47.856580   1.000000
    2      -47.624687   1.000000
    3      -47.579648   1.000000
    4      -47.391198   1.000000
    5      -47.371487   1.000000
    6      -24.240876   1.000000
    7      -24.112356   1.000000
    8      -24.060930   1.000000
    9      -24.032509   1.000000
   10      -23.965521   1.000000
   11      -23.826520   1.000000
   12      -23.799372   1.000000
   13      -23.739828   1.000000
   14      -23.685578   1.000000
   15      -23.600948   1.000000
   16      -23.563875   1.000000
   17      -23.556326   1.000000
   18      -23.471632   1.000000
   19      -23.302755   1.000000
   20      -23.173162   1.000000
   21        0.825983   1.000000
   22        1.694022   1.000000
   23        2.005922   1.000000
   24        2.234160   1.000000
   25        2.377015   1.000000
   26        2.482154   1.000000
   27        2.770315   1.000000
   28        2.966166   1.000000
   29        3.008526   1.000000
   30        3.072743   1.000000
   31        3.143249   1.000000
   32        3.200945   1.000000
   33        3.282167   1.000000
   34        3.324856   1.000000
   35        3.383926   1.000000
   36        3.440834   1.000000
   37        3.475385   1.000000
   38        3.516021   1.000000
   39        3.640530   1.000000
   40        3.674853   1.000000
   41        3.744544   1.000000
   42        3.834932   1.000000
   43        3.859579   1.000000
   44        3.925721   1.000000
   45        3.970795   1.000000
   46        4.017681   1.000000
   47        4.054875   1.000000