 running on   96 total cores
 distrk:  each k-point on   96 cores,    1 groups
 distr:  one band on    8 cores,   12 groups
 using from now: INCAR     
 vasp.5.4.4.18Apr17-6-g9f103f2a35 (build Aug 09 2018 16:20:53) complex          
  
 POSCAR found :  5 types and      29 ions
 scaLAPACK will be used

 ----------------------------------------------------------------------------- 
|                                                                             |
|  ADVICE TO THIS USER RUNNING 'VASP/VAMP'   (HEAR YOUR MASTER'S VOICE ...):  |
|                                                                             |
|      You enforced a specific xc-type in the INCAR file,                     |
|      a different type was found on the POTCAR file                          |
|          I HOPE YOU KNOW, WHAT YOU ARE  DOING                               |
|                                                                             |
 ----------------------------------------------------------------------------- 

 LDA part: xc-table for Pade appr. of Perdew
 POSCAR found :  5 types and      29 ions
 POSCAR, INCAR and KPOINTS ok, starting setup
 FFT: planning ...
 WAVECAR not read
 initial charge from wavefunction
 entering main loop
       N       E                     dE             d eps       ncg     rms          rms(c)
DAV:   1    -0.394474442680E+04   -0.39447E+04   -0.15222E+05 57636   0.191E+03
DAV:   2    -0.944298260434E+04   -0.54982E+04   -0.51262E+04 70032   0.113E+03
DAV:   3    -0.105296003697E+05   -0.10866E+04   -0.10312E+04 82560   0.540E+02
DAV:   4    -0.109138800031E+05   -0.38428E+03   -0.33882E+03 82560   0.268E+02
DAV:   5    -0.111163766084E+05   -0.20250E+03   -0.18619E+03 82560   0.207E+02BRMIX: very serious problems
 the old and the new charge density differ
 old charge density:   184.50000 new  185.00000
    0.855E+03
DAV:   6    -0.105093218780E+04    0.10065E+05   -0.38967E+04 69708   0.739E+02    0.373E+03
DAV:   7    -0.870358379977E+03    0.18057E+03   -0.19832E+04 72900   0.697E+02    0.274E+03
DAV:   8    -0.663852944749E+03    0.20651E+03   -0.66030E+03 73176   0.364E+02    0.242E+03
DAV:   9    -0.544082396323E+03    0.11977E+03   -0.10252E+03 69024   0.121E+02    0.231E+03
DAV:  10    -0.517230971793E+03    0.26851E+02   -0.40671E+02 77220   0.884E+01    0.221E+03
DAV:  11    -0.460345851278E+03    0.56885E+02   -0.46563E+02 76260   0.611E+01    0.206E+03
DAV:  12    -0.533575442657E+03   -0.73230E+02   -0.28898E+03 71892   0.329E+02    0.186E+03
DAV:  13    -0.637006597991E+03   -0.10343E+03   -0.22300E+03 68484   0.278E+02    0.128E+03
DAV:  14    -0.545255076600E+03    0.91752E+02   -0.16218E+03 74184   0.183E+02    0.423E+02
DAV:  15    -0.415424988108E+03    0.12983E+03   -0.99443E+02 77976   0.132E+02    0.234E+02
DAV:  16    -0.350930303343E+03    0.64495E+02   -0.52069E+02 71196   0.729E+01    0.206E+02
DAV:  17    -0.342471430660E+03    0.84589E+01   -0.41307E+02 75252   0.790E+01    0.215E+02
DAV:  18    -0.385323984836E+03   -0.42853E+02   -0.70202E+02 74772   0.135E+02    0.189E+02
DAV:  19    -0.347853341050E+03    0.37471E+02   -0.18363E+02 78408   0.523E+01    0.149E+02
DAV:  20    -0.326936905201E+03    0.20916E+02   -0.97715E+01 74004   0.549E+01    0.115E+02
DAV:  21    -0.315960174474E+03    0.10977E+02   -0.21879E+02 72444   0.596E+01    0.921E+01
DAV:  22    -0.308842483947E+03    0.71177E+01   -0.98622E+01 71700   0.483E+01    0.623E+01
DAV:  23    -0.307948224618E+03    0.89426E+00   -0.31717E+01 71340   0.244E+01    0.481E+01
DAV:  24    -0.307332741996E+03    0.61548E+00   -0.50645E+00 69096   0.926E+00    0.457E+01
DAV:  25    -0.307433602098E+03   -0.10086E+00   -0.30687E+00 73788   0.737E+00    0.437E+01
DAV:  26    -0.307234929378E+03    0.19867E+00   -0.95519E+00 69048   0.126E+01    0.308E+01
DAV:  27    -0.306231239448E+03    0.10037E+01   -0.12775E+01 71004   0.182E+01    0.223E+01
DAV:  28    -0.305912783357E+03    0.31846E+00   -0.24135E+00 69600   0.570E+00    0.189E+01
DAV:  29    -0.305462798928E+03    0.44998E+00   -0.23918E+00 71532   0.596E+00    0.138E+01
DAV:  30    -0.305362963007E+03    0.99836E-01   -0.12511E+00 71280   0.493E+00    0.112E+01
DAV:  31    -0.305437257099E+03   -0.74294E-01   -0.56953E-01 70140   0.290E+00    0.101E+01
DAV:  32    -0.305267146605E+03    0.17011E+00   -0.94223E-01 64800   0.400E+00    0.788E+00
DAV:  33    -0.305239826841E+03    0.27320E-01   -0.16293E-01 68004   0.172E+00    0.589E+00
DAV:  34    -0.305217612786E+03    0.22214E-01   -0.11981E-01 66096   0.161E+00    0.463E+00
DAV:  35    -0.305204541490E+03    0.13071E-01   -0.83056E-02 71100   0.106E+00    0.388E+00
DAV:  36    -0.305225855027E+03   -0.21314E-01   -0.13543E-01 67212   0.162E+00    0.334E+00
DAV:  37    -0.305195522014E+03    0.30333E-01   -0.51336E-02 75252   0.854E-01    0.217E+00
DAV:  38    -0.305178924242E+03    0.16598E-01   -0.20136E-02 67920   0.542E-01    0.148E+00
DAV:  39    -0.305169659832E+03    0.92644E-02   -0.20361E-02 72180   0.495E-01    0.107E+00
DAV:  40    -0.305166924167E+03    0.27357E-02   -0.40975E-03 66120   0.256E-01    0.803E-01
DAV:  41    -0.305166895233E+03    0.28935E-04   -0.23031E-03 67812   0.172E-01    0.698E-01
DAV:  42    -0.305164350818E+03    0.25444E-02   -0.35893E-03 62640   0.253E-01    0.454E-01
DAV:  43    -0.305162974814E+03    0.13760E-02   -0.52260E-03 62928   0.304E-01    0.209E-01
DAV:  44    -0.305162872748E+03    0.10207E-03   -0.38869E-04 42156   0.740E-02    0.165E-01
DAV:  45    -0.305162750467E+03    0.12228E-03   -0.30654E-04 34824   0.728E-02    0.948E-02
DAV:  46    -0.305162746014E+03    0.44536E-05   -0.14133E-04 27912   0.518E-02
   1 F= -.30516275E+03 E0= -.30515714E+03  d E =-.305163E+03
 curvature:   0.00 expect dE= 0.000E+00 dE for cont linesearch  0.000E+00
 trial: gam= 0.00000 g(F)=  0.797E+00 g(S)=  0.393E+00 ort = 0.000E+00 (trialstep = 0.100E+01)
 search vector abs. value=  0.119E+01
 bond charge predicted
       N       E                     dE             d eps       ncg     rms          rms(c)
DAV:   1    -0.306826881543E+03   -0.16641E+01   -0.13000E+02 48852   0.463E+01    0.126E+01
DAV:   2    -0.307771160848E+03   -0.94428E+00   -0.25088E+01 74412   0.243E+01    0.102E+01
DAV:   3    -0.306926002796E+03    0.84516E+00   -0.18748E+01 73572   0.178E+01    0.915E+00
DAV:   4    -0.306543227940E+03    0.38277E+00   -0.12919E+01 69984   0.177E+01    0.821E+00
DAV:   5    -0.305949304203E+03    0.59392E+00   -0.68807E+00 74220   0.119E+01    0.467E+00
DAV:   6    -0.305816206840E+03    0.13310E+00   -0.28326E+00 70320   0.720E+00    0.383E+00
DAV:   7    -0.305729425068E+03    0.86782E-01   -0.16125E+00 75192   0.545E+00    0.243E+00
DAV:   8    -0.305705887803E+03    0.23537E-01   -0.52850E-01 74448   0.346E+00    0.170E+00
DAV:   9    -0.305689611820E+03    0.16276E-01   -0.21006E-01 73068   0.214E+00    0.123E+00
DAV:  10    -0.305685915642E+03    0.36962E-02   -0.10221E-01 69876   0.143E+00    0.947E-01
DAV:  11    -0.305691366256E+03   -0.54506E-02   -0.59471E-02 70020   0.114E+00    0.915E-01
DAV:  12    -0.305693084322E+03   -0.17181E-02   -0.52089E-02 71028   0.105E+00    0.516E-01
DAV:  13    -0.305694553263E+03   -0.14689E-02   -0.44492E-02 76884   0.897E-01    0.516E-01
DAV:  14    -0.305693026414E+03    0.15268E-02   -0.29223E-02 68820   0.811E-01    0.298E-01
DAV:  15    -0.305692333952E+03    0.69246E-03   -0.91734E-03 74700   0.418E-01    0.139E-01
DAV:  16    -0.305692147434E+03    0.18652E-03   -0.20897E-03 63420   0.169E-01    0.878E-02
DAV:  17    -0.305692144201E+03    0.32333E-05   -0.52991E-04 44340   0.114E-01
   2 F= -.30569214E+03 E0= -.30568620E+03  d E =-.529398E+00
 trial-energy change:   -0.529398  1 .order   -0.513905   -1.189088    0.161279
 step:   0.8874(harm=  0.8806)  dis= 0.04448  next Energy=  -305.701199 (dE=-0.538E+00)
 bond charge predicted
       N       E                     dE             d eps       ncg     rms          rms(c)
DAV:   1    -0.305717358104E+03   -0.25211E-01   -0.16809E+00 51924   0.534E+00    0.139E+00
DAV:   2    -0.305729606745E+03   -0.12249E-01   -0.32079E-01 75000   0.264E+00    0.127E+00
DAV:   3    -0.305718851382E+03    0.10755E-01   -0.28547E-01 74820   0.221E+00    0.106E+00
DAV:   4    -0.305714287621E+03    0.45638E-02   -0.16984E-01 73308   0.178E+00    0.989E-01
DAV:   5    -0.305706802069E+03    0.74856E-02   -0.10460E-01 71124   0.139E+00    0.634E-01
DAV:   6    -0.305703915173E+03    0.28869E-02   -0.49361E-02 70908   0.967E-01    0.453E-01
DAV:   7    -0.305702495506E+03    0.14197E-02   -0.21954E-02 78324   0.647E-01    0.280E-01
DAV:   8    -0.305702007442E+03    0.48806E-03   -0.75584E-03 75312   0.379E-01    0.180E-01
DAV:   9    -0.305701899797E+03    0.10765E-03   -0.29291E-03 65544   0.248E-01    0.151E-01
DAV:  10    -0.305701776293E+03    0.12350E-03   -0.12256E-03 55776   0.161E-01    0.100E-01
DAV:  11    -0.305701823633E+03   -0.47340E-04   -0.42847E-04 40956   0.111E-01
   3 F= -.30570182E+03 E0= -.30569589E+03  d E =-.539078E+00
 curvature:  -0.44 expect dE=-0.527E+00 dE for cont linesearch -0.232E-04
 trial: gam= 1.01715 g(F)=  0.403E+00 g(S)=  0.799E+00 ort =-0.794E-02 (trialstep = 0.481E+00)
 search vector abs. value=  0.242E+01
 bond charge predicted
       N       E                     dE             d eps       ncg     rms          rms(c)
DAV:   1    -0.306007994955E+03   -0.30622E+00   -0.51376E+01 41280   0.223E+01    0.322E+00
DAV:   2    -0.306687131833E+03   -0.67914E+00   -0.63863E+00 72528   0.116E+01    0.617E+00
DAV:   3    -0.306188744796E+03    0.49839E+00   -0.34437E+00 75504   0.821E+00    0.226E+00
DAV:   4    -0.306197160845E+03   -0.84160E-02   -0.79027E-01 70668   0.413E+00    0.244E+00
DAV:   5    -0.306147696555E+03    0.49464E-01   -0.49455E-01 69564   0.347E+00    0.123E+00
DAV:   6    -0.306140036974E+03    0.76596E-02   -0.20893E-01 73788   0.195E+00    0.106E+00
DAV:   7    -0.306134837452E+03    0.51995E-02   -0.12842E-01 74256   0.163E+00    0.840E-01
DAV:   8    -0.306130698570E+03    0.41389E-02   -0.79928E-02 73008   0.129E+00    0.579E-01
DAV:   9    -0.306128060779E+03    0.26378E-02   -0.30248E-02 71028   0.741E-01    0.354E-01
DAV:  10    -0.306127425224E+03    0.63556E-03   -0.98502E-03 63204   0.472E-01    0.262E-01
DAV:  11    -0.306127279859E+03    0.14536E-03   -0.37704E-03 67488   0.265E-01    0.184E-01
DAV:  12    -0.306127531414E+03   -0.25156E-03   -0.33857E-03 67320   0.243E-01    0.182E-01
DAV:  13    -0.306127478396E+03    0.53018E-04   -0.37083E-03 61932   0.298E-01    0.154E-01
DAV:  14    -0.306127304439E+03    0.17396E-03   -0.24550E-03 63888   0.235E-01    0.781E-02
DAV:  15    -0.306127240497E+03    0.63942E-04   -0.67859E-04 50004   0.112E-01
   4 F= -.30612724E+03 E0= -.30612179E+03  d E =-.425417E+00
 trial-energy change:   -0.425417  1 .order   -0.426808   -0.574260   -0.279357
 step:   0.9644(harm=  0.9370)  dis= 0.08833  next Energy=  -306.266104 (dE=-0.564E+00)
 bond charge predicted
       N       E                     dE             d eps       ncg     rms          rms(c)
DAV:   1    -0.306138766840E+03   -0.11462E-01   -0.51672E+01 41280   0.223E+01    0.317E+00
DAV:   2    -0.306822306147E+03   -0.68354E+00   -0.64568E+00 72564   0.118E+01    0.614E+00
DAV:   3    -0.306316369926E+03    0.50594E+00   -0.34100E+00 75108   0.824E+00    0.213E+00
DAV:   4    -0.306326839486E+03   -0.10470E-01   -0.75231E-01 70968   0.403E+00    0.235E+00
DAV:   5    -0.306278032412E+03    0.48807E-01   -0.45359E-01 70092   0.338E+00    0.114E+00
DAV:   6    -0.306268614943E+03    0.94175E-02   -0.16788E-01 74928   0.183E+00    0.887E-01
DAV:   7    -0.306266539654E+03    0.20753E-02   -0.11215E-01 77088   0.146E+00    0.804E-01
DAV:   8    -0.306262628864E+03    0.39108E-02   -0.66491E-02 71844   0.124E+00    0.554E-01
DAV:   9    -0.306260150099E+03    0.24788E-02   -0.26602E-02 69612   0.699E-01    0.331E-01
DAV:  10    -0.306259729005E+03    0.42109E-03   -0.94746E-03 63348   0.439E-01    0.267E-01
DAV:  11    -0.306259548686E+03    0.18032E-03   -0.40758E-03 67236   0.282E-01    0.175E-01
DAV:  12    -0.306259726417E+03   -0.17773E-03   -0.34126E-03 67776   0.236E-01    0.163E-01
DAV:  13    -0.306259643449E+03    0.82968E-04   -0.32663E-03 63552   0.269E-01    0.135E-01
DAV:  14    -0.306259535323E+03    0.10813E-03   -0.21837E-03 62424   0.225E-01    0.810E-02
DAV:  15    -0.306259459367E+03    0.75955E-04   -0.57758E-04 46104   0.114E-01
   5 F= -.30625946E+03 E0= -.30625558E+03  d E =-.557636E+00
 curvature:  -0.94 expect dE=-0.150E+00 dE for cont linesearch -0.387E-03
 trial: gam=-0.00257 g(F)=  0.121E+00 g(S)=  0.384E-01 ort =-0.315E-01 (trialstep = 0.578E+00)
 search vector abs. value=  0.159E+00
 bond charge predicted
       N       E                     dE             d eps       ncg     rms          rms(c)
DAV:   1    -0.306330459014E+03   -0.70924E-01   -0.64647E+00 45540   0.972E+00    0.219E+00
DAV:   2    -0.306407275380E+03   -0.76816E-01   -0.11922E+00 71964   0.531E+00    0.269E+00
DAV:   3    -0.306392806631E+03    0.14469E-01   -0.11535E+00 67788   0.480E+00    0.251E+00
DAV:   4    -0.306343024216E+03    0.49782E-01   -0.45198E-01 68652   0.294E+00    0.111E+00
DAV:   5    -0.306334410109E+03    0.86141E-02   -0.21031E-01 72792   0.189E+00    0.101E+00
DAV:   6    -0.306327232050E+03    0.71781E-02   -0.11609E-01 70188   0.157E+00    0.627E-01
DAV:   7    -0.306323372090E+03    0.38600E-02   -0.37958E-02 74904   0.912E-01    0.347E-01
DAV:   8    -0.306323351911E+03    0.20179E-04   -0.19151E-02 77256   0.572E-01    0.329E-01
DAV:   9    -0.306322760862E+03    0.59105E-03   -0.78473E-03 66768   0.406E-01    0.227E-01
DAV:  10    -0.306322473040E+03    0.28782E-03   -0.28893E-03 63156   0.246E-01    0.154E-01
DAV:  11    -0.306322663173E+03   -0.19013E-03   -0.14562E-03 62148   0.159E-01    0.133E-01
DAV:  12    -0.306322776847E+03   -0.11367E-03   -0.23207E-03 67020   0.228E-01    0.124E-01
DAV:  13    -0.306322668303E+03    0.10854E-03   -0.14458E-03 62028   0.178E-01    0.662E-02
DAV:  14    -0.306322644206E+03    0.24097E-04   -0.60539E-04 45648   0.116E-01
   6 F= -.30632264E+03 E0= -.30631872E+03  d E =-.631848E-01
 trial-energy change:   -0.063185  1 .order   -0.064218   -0.091881   -0.036556
 step:   1.0582(harm=  0.9596)  dis= 0.02295  next Energy=  -306.337247 (dE=-0.778E-01)
 bond charge predicted
       N       E                     dE             d eps       ncg     rms          rms(c)
DAV:   1    -0.306337669227E+03   -0.15001E-01   -0.44500E+00 44256   0.804E+00    0.181E+00
DAV:   2    -0.306389825826E+03   -0.52157E-01   -0.80896E-01 71880   0.437E+00    0.222E+00
DAV:   3    -0.306381818426E+03    0.80074E-02   -0.79115E-01 67728   0.395E+00    0.211E+00
DAV:   4    -0.306346544835E+03    0.35274E-01   -0.31083E-01 68616   0.243E+00    0.917E-01
DAV:   5    -0.306341025465E+03    0.55194E-02   -0.14731E-01 72792   0.159E+00    0.859E-01
DAV:   6    -0.306335833875E+03    0.51916E-02   -0.80065E-02 70404   0.131E+00    0.519E-01
DAV:   7    -0.306333110529E+03    0.27233E-02   -0.25608E-02 75096   0.742E-01    0.280E-01
DAV:   8    -0.306333129795E+03   -0.19267E-04   -0.12783E-02 76968   0.456E-01    0.268E-01
DAV:   9    -0.306332736183E+03    0.39361E-03   -0.52807E-03 67128   0.328E-01    0.186E-01
DAV:  10    -0.306332549211E+03    0.18697E-03   -0.19860E-03 62580   0.204E-01    0.128E-01
DAV:  11    -0.306332677773E+03   -0.12856E-03   -0.10195E-03 56316   0.139E-01    0.114E-01
DAV:  12    -0.306332738346E+03   -0.60572E-04   -0.15350E-03 62208   0.192E-01    0.987E-02
DAV:  13    -0.306332668674E+03    0.69672E-04   -0.96794E-04 54996   0.153E-01
   7 F= -.30633267E+03 E0= -.30632868E+03  d E =-.732093E-01
 curvature:  -0.45 expect dE=-0.717E-01 dE for cont linesearch -0.733E-03
 trial: gam= 1.10903 g(F)=  0.284E-01 g(S)=  0.132E+00 ort =-0.161E-01 (trialstep = 0.335E+00)
 search vector abs. value=  0.320E+00
 bond charge predicted
       N       E                     dE             d eps       ncg     rms          rms(c)
DAV:   1    -0.306359356866E+03   -0.26619E-01   -0.39641E+00 41280   0.692E+00    0.116E+00
DAV:   2    -0.306418862579E+03   -0.59506E-01   -0.60885E-01 70728   0.386E+00    0.210E+00
DAV:   3    -0.306382245922E+03    0.36617E-01   -0.40032E-01 68832   0.293E+00    0.101E+00
DAV:   4    -0.306378868695E+03    0.33772E-02   -0.12061E-01 69420   0.146E+00    0.802E-01
DAV:   5    -0.306373390289E+03    0.54784E-02   -0.70927E-02 71064   0.121E+00    0.547E-01
DAV:   6    -0.306370915624E+03    0.24747E-02   -0.33733E-02 71736   0.853E-01    0.319E-01
DAV:   7    -0.306370606100E+03    0.30952E-03   -0.16828E-02 77064   0.526E-01    0.283E-01
DAV:   8    -0.306370042055E+03    0.56404E-03   -0.72650E-03 64860   0.389E-01    0.169E-01
DAV:   9    -0.306369806828E+03    0.23523E-03   -0.22533E-03 64104   0.219E-01    0.104E-01
DAV:  10    -0.306369783699E+03    0.23129E-04   -0.65219E-04 48228   0.110E-01
   8 F= -.30636978E+03 E0= -.30636578E+03  d E =-.371150E-01
 trial-energy change:   -0.037115  1 .order   -0.037310   -0.047644   -0.026976
 step:   0.7724(harm=  0.7724)  dis= 0.02317  next Energy=  -306.387584 (dE=-0.549E-01)
 bond charge predicted
       N       E                     dE             d eps       ncg     rms          rms(c)
DAV:   1    -0.306366825444E+03    0.29814E-02   -0.67498E+00 41280   0.901E+00    0.151E+00
DAV:   2    -0.306462538012E+03   -0.95713E-01   -0.10065E+00 70812   0.496E+00    0.264E+00
DAV:   3    -0.306405938334E+03    0.56600E-01   -0.66583E-01 68724   0.382E+00    0.135E+00
DAV:   4    -0.306399255796E+03    0.66825E-02   -0.20710E-01 69264   0.192E+00    0.104E+00
DAV:   5    -0.306389683389E+03    0.95724E-02   -0.11644E-01 71124   0.155E+00    0.674E-01
DAV:   6    -0.306386186938E+03    0.34965E-02   -0.55220E-02 71412   0.110E+00    0.426E-01
DAV:   7    -0.306385342504E+03    0.84443E-03   -0.27425E-02 77280   0.675E-01    0.342E-01
DAV:   8    -0.306384628194E+03    0.71431E-03   -0.10632E-02 67716   0.465E-01    0.222E-01
DAV:   9    -0.306384287439E+03    0.34075E-03   -0.35827E-03 65124   0.276E-01    0.146E-01
DAV:  10    -0.306384281774E+03    0.56653E-05   -0.12281E-03 59280   0.142E-01    0.117E-01
DAV:  11    -0.306384389954E+03   -0.10818E-03   -0.94598E-04 53580   0.142E-01    0.986E-02
DAV:  12    -0.306384433180E+03   -0.43226E-04   -0.11955E-03 55572   0.171E-01    0.761E-02
DAV:  13    -0.306384385073E+03    0.48106E-04   -0.60526E-04 45036   0.132E-01
   9 F= -.30638439E+03 E0= -.30638033E+03  d E =-.517164E-01
 curvature:  -0.87 expect dE=-0.306E-01 dE for cont linesearch -0.374E-03
 trial: gam= 0.08722 g(F)=  0.335E-01 g(S)=  0.173E-02 ort =-0.117E-01 (trialstep = 0.423E+00)
 search vector abs. value=  0.356E-01
 bond charge predicted
       N       E                     dE             d eps       ncg     rms          rms(c)
DAV:   1    -0.306394675411E+03   -0.10242E-01   -0.68757E-01 41304   0.277E+00    0.450E-01
DAV:   2    -0.306402439498E+03   -0.77641E-02   -0.90112E-02 71844   0.157E+00    0.657E-01
DAV:   3    -0.306398037246E+03    0.44023E-02   -0.46335E-02 71532   0.103E+00    0.340E-01
DAV:   4    -0.306397694258E+03    0.34299E-03   -0.17374E-02 66408   0.574E-01    0.311E-01
DAV:   5    -0.306396923468E+03    0.77079E-03   -0.11033E-02 67584   0.466E-01    0.209E-01
DAV:   6    -0.306396623874E+03    0.29959E-03   -0.47909E-03 63156   0.307E-01    0.144E-01
DAV:   7    -0.306396551134E+03    0.72739E-04   -0.29334E-03 66444   0.245E-01    0.121E-01
DAV:   8    -0.306396460118E+03    0.91017E-04   -0.12653E-03 54924   0.177E-01    0.733E-02
DAV:   9    -0.306396402948E+03    0.57170E-04   -0.30588E-04 34740   0.113E-01
  10 F= -.30639640E+03 E0= -.30639244E+03  d E =-.120179E-01
 trial-energy change:   -0.012018  1 .order   -0.012119   -0.014452   -0.009786
 step:   1.3086(harm=  1.3086)  dis= 0.01383  next Energy=  -306.406764 (dE=-0.224E-01)
 bond charge predicted
       N       E                     dE             d eps       ncg     rms          rms(c)
DAV:   1    -0.306399069655E+03   -0.26095E-02   -0.30261E+00 41280   0.581E+00    0.930E-01
DAV:   2    -0.306432409900E+03   -0.33340E-01   -0.38727E-01 71676   0.327E+00    0.134E+00
DAV:   3    -0.306414163328E+03    0.18247E-01   -0.18999E-01 71556   0.211E+00    0.703E-01
DAV:   4    -0.306412398483E+03    0.17648E-02   -0.70694E-02 70596   0.117E+00    0.615E-01
DAV:   5    -0.306409330110E+03    0.30684E-02   -0.44555E-02 71328   0.927E-01    0.424E-01
DAV:   6    -0.306408184594E+03    0.11455E-02   -0.20549E-02 70464   0.636E-01    0.303E-01
DAV:   7    -0.306407896524E+03    0.28807E-03   -0.12903E-02 76152   0.504E-01    0.256E-01
DAV:   8    -0.306407477446E+03    0.41908E-03   -0.55869E-03 71508   0.344E-01    0.152E-01
DAV:   9    -0.306407294906E+03    0.18254E-03   -0.19154E-03 64212   0.198E-01    0.103E-01
DAV:  10    -0.306407249629E+03    0.45277E-04   -0.64447E-04 47796   0.123E-01
  11 F= -.30640725E+03 E0= -.30640345E+03  d E =-.228646E-01
 curvature:  -0.68 expect dE=-0.187E-01 dE for cont linesearch -0.364E-04
 trial: gam= 0.70704 g(F)=  0.529E-02 g(S)=  0.222E-01 ort = 0.138E-02 (trialstep = 0.452E+00)
 search vector abs. value=  0.473E-01
 bond charge predicted
       N       E                     dE             d eps       ncg     rms          rms(c)
DAV:   1    -0.306421502971E+03   -0.14208E-01   -0.11005E+00 54000   0.426E+00    0.103E+00
DAV:   2    -0.306431772906E+03   -0.10270E-01   -0.22380E-01 74280   0.220E+00    0.105E+00
DAV:   3    -0.306427612312E+03    0.41606E-02   -0.20602E-01 70992   0.203E+00    0.101E+00
DAV:   4    -0.306419992016E+03    0.76203E-02   -0.82755E-02 68424   0.142E+00    0.561E-01
DAV:   5    -0.306418028897E+03    0.19631E-02   -0.47721E-02 71160   0.918E-01    0.496E-01
DAV:   6    -0.306416011041E+03    0.20179E-02   -0.24742E-02 68700   0.724E-01    0.269E-01
DAV:   7    -0.306415436282E+03    0.57476E-03   -0.82932E-03 75576   0.402E-01    0.188E-01
DAV:   8    -0.306415286141E+03    0.15014E-03   -0.48741E-03 67188   0.320E-01    0.137E-01
DAV:   9    -0.306415175651E+03    0.11049E-03   -0.15522E-03 60648   0.185E-01    0.870E-02
DAV:  10    -0.306415112249E+03    0.63402E-04   -0.26572E-04 33960   0.946E-02
  12 F= -.30641511E+03 E0= -.30641142E+03  d E =-.786262E-02
 trial-energy change:   -0.007863  1 .order   -0.007983   -0.012871   -0.003095
 step:   0.5952(harm=  0.5952)  dis= 0.00445  next Energy=  -306.415723 (dE=-0.847E-02)
 bond charge predicted
       N       E                     dE             d eps       ncg     rms          rms(c)
DAV:   1    -0.306416040992E+03   -0.86534E-03   -0.11081E-01 54264   0.135E+00    0.311E-01
DAV:   2    -0.306417434560E+03   -0.13936E-02   -0.23391E-02 72336   0.749E-01    0.371E-01
DAV:   3    -0.306416500726E+03    0.93383E-03   -0.20868E-02 69696   0.672E-01    0.290E-01
DAV:   4    -0.306415940969E+03    0.55976E-03   -0.69079E-03 64212   0.408E-01    0.174E-01
DAV:   5    -0.306415699840E+03    0.24113E-03   -0.43332E-03 64560   0.281E-01    0.137E-01
DAV:   6    -0.306415564682E+03    0.13516E-03   -0.21130E-03 60288   0.220E-01    0.882E-02
DAV:   7    -0.306415496831E+03    0.67851E-04   -0.60941E-04 42324   0.126E-01
  13 F= -.30641550E+03 E0= -.30641184E+03  d E =-.824720E-02
 curvature:  -0.49 expect dE=-0.274E-02 dE for cont linesearch -0.439E-05
 trial: gam= 0.20754 g(F)=  0.471E-02 g(S)=  0.841E-03 ort = 0.648E-03 (trialstep = 0.481E+00)
 search vector abs. value=  0.786E-02
 bond charge predicted
       N       E                     dE             d eps       ncg     rms          rms(c)
DAV:   1    -0.306416996700E+03   -0.14320E-02   -0.17814E-01 41292   0.134E+00    0.142E-01
DAV:   2    -0.306419486033E+03   -0.24893E-02   -0.21536E-02 69588   0.790E-01    0.365E-01
DAV:   3    -0.306418080071E+03    0.14060E-02   -0.97080E-03 70104   0.477E-01    0.122E-01
DAV:   4    -0.306418072974E+03    0.70968E-05   -0.20695E-03 58440   0.206E-01    0.121E-01
DAV:   5    -0.306417941898E+03    0.13108E-03   -0.77110E-04 48660   0.144E-01    0.609E-02
DAV:   6    -0.306417931727E+03    0.10171E-04   -0.26446E-04 34272   0.100E-01
  14 F= -.30641793E+03 E0= -.30641433E+03  d E =-.243490E-02
 ZBRENT: can't locate minimum, use default step
 trial-energy change:   -0.002435  1 .order   -0.002516   -0.002734   -0.002299
 step:   1.9227(harm=  3.0211)  dis= 0.01535  next Energy=  -306.424088 (dE=-0.859E-02)
 bond charge predicted
       N       E                     dE             d eps       ncg     rms          rms(c)
DAV:   1    -0.306414222213E+03    0.37197E-02   -0.16009E+00 41280   0.399E+00    0.413E-01
DAV:   2    -0.306437889637E+03   -0.23667E-01   -0.19847E-01 70452   0.233E+00    0.115E+00
DAV:   3    -0.306423275871E+03    0.14614E-01   -0.94005E-02 70392   0.148E+00    0.340E-01
DAV:   4    -0.306423376451E+03   -0.10058E-03   -0.18750E-02 63900   0.625E-01    0.352E-01
DAV:   5    -0.306422125909E+03    0.12505E-02   -0.75377E-03 64200   0.430E-01    0.158E-01
DAV:   6    -0.306422130927E+03   -0.50172E-05   -0.31061E-03 66324   0.257E-01    0.159E-01
DAV:   7    -0.306422034455E+03    0.96472E-04   -0.26660E-03 62352   0.260E-01    0.135E-01
DAV:   8    -0.306421854512E+03    0.17994E-03   -0.17388E-03 60408   0.205E-01    0.707E-02
DAV:   9    -0.306421790165E+03    0.64347E-04   -0.39040E-04 41148   0.103E-01
  15 F= -.30642179E+03 E0= -.30641831E+03  d E =-.629333E-02
 curvature:  -1.70 expect dE=-0.389E-02 dE for cont linesearch -0.210E-03
 trial: gam= 0.17770 g(F)=  0.141E-02 g(S)=  0.881E-03 ort = 0.986E-03 (trialstep = 0.769E+00)
 search vector abs. value=  0.289E-02
 bond charge predicted
       N       E                     dE             d eps       ncg     rms          rms(c)
DAV:   1    -0.306423779549E+03   -0.19250E-02   -0.18998E-01 52668   0.177E+00    0.419E-01
DAV:   2    -0.306425117881E+03   -0.13383E-02   -0.35726E-02 73932   0.877E-01    0.396E-01
DAV:   3    -0.306424901360E+03    0.21652E-03   -0.34756E-02 70824   0.807E-01    0.424E-01
DAV:   4    -0.306423424279E+03    0.14771E-02   -0.14789E-02 62196   0.575E-01    0.219E-01
DAV:   5    -0.306423122049E+03    0.30223E-03   -0.69859E-03 65364   0.344E-01    0.179E-01
DAV:   6    -0.306422854986E+03    0.26706E-03   -0.35309E-03 61452   0.291E-01    0.117E-01
DAV:   7    -0.306422779680E+03    0.75307E-04   -0.17229E-03 63972   0.191E-01    0.793E-02
DAV:   8    -0.306422746900E+03    0.32780E-04   -0.64924E-04 44796   0.131E-01
  16 F= -.30642275E+03 E0= -.30641930E+03  d E =-.956735E-03
 trial-energy change:   -0.000957  1 .order   -0.000927   -0.001896    0.000042
 step:   0.7526(harm=  0.7526)  dis= 0.00180  next Energy=  -306.422718 (dE=-0.928E-03)
 bond charge predicted
       N       E                     dE             d eps       ncg     rms          rms(c)
DAV:   1    -0.306422736671E+03    0.43008E-04   -0.32959E-04 30504   0.997E-02    0.433E-02
DAV:   2    -0.306422819737E+03   -0.83065E-04   -0.46498E-04 37464   0.127E-01
  17 F= -.30642282E+03 E0= -.30641936E+03  d E =-.102957E-02
 curvature:  -0.44 expect dE=-0.125E-02 dE for cont linesearch -0.195E-04
 trial: gam= 1.16889 g(F)=  0.119E-02 g(S)=  0.165E-02 ort = 0.357E-03 (trialstep = 0.290E+00)
 search vector abs. value=  0.762E-02
 bond charge predicted
       N       E                     dE             d eps       ncg     rms          rms(c)
DAV:   1    -0.306423053437E+03   -0.31677E-03   -0.67037E-02 41520   0.847E-01    0.890E-02
DAV:   2    -0.306423762048E+03   -0.70861E-03   -0.70794E-03 68292   0.445E-01    0.175E-01
DAV:   3    -0.306423497063E+03    0.26498E-03   -0.25782E-03 63288   0.259E-01    0.737E-02
DAV:   4    -0.306423481984E+03    0.15078E-04   -0.53429E-04 43452   0.120E-01
  18 F= -.30642348E+03 E0= -.30642008E+03  d E =-.662248E-03
 trial-energy change:   -0.000662  1 .order   -0.000789   -0.000944   -0.000633
 step:   0.8801(harm=  0.8801)  dis= 0.00385  next Energy=  -306.424251 (dE=-0.143E-02)
 bond charge predicted
       N       E                     dE             d eps       ncg     rms          rms(c)
DAV:   1    -0.306422736498E+03    0.76057E-03   -0.28048E-01 41304   0.171E+00    0.179E-01
DAV:   2    -0.306425372574E+03   -0.26361E-02   -0.27881E-02 68616   0.892E-01    0.332E-01
DAV:   3    -0.306424522880E+03    0.84969E-03   -0.94540E-03 66336   0.505E-01    0.159E-01
DAV:   4    -0.306424399119E+03    0.12376E-03   -0.25200E-03 60660   0.233E-01    0.120E-01
DAV:   5    -0.306424292085E+03    0.10703E-03   -0.12068E-03 53796   0.177E-01    0.931E-02
DAV:   6    -0.306424252514E+03    0.39571E-04   -0.68671E-04 45744   0.126E-01
  19 F= -.30642425E+03 E0= -.30642090E+03  d E =-.143278E-02
 curvature:  -1.03 expect dE=-0.136E-02 dE for cont linesearch -0.171E-03
 trial: gam=-0.01356 g(F)=  0.673E-03 g(S)=  0.647E-03 ort = 0.112E-02 (trialstep = 0.408E+00)
 search vector abs. value=  0.129E-02
 bond charge predicted
       N       E                     dE             d eps       ncg     rms          rms(c)
DAV:   1    -0.306424825210E+03   -0.53313E-03   -0.26047E-02 58080   0.702E-01    0.198E-01
DAV:   2    -0.306426966736E+03   -0.21415E-02   -0.17156E-02 67800   0.675E-01    0.481E-01
DAV:   3    -0.306424671435E+03    0.22953E-02   -0.13894E-02 64644   0.557E-01    0.113E-01
DAV:   4    -0.306424622820E+03    0.48616E-04   -0.19365E-03 61020   0.187E-01    0.109E-01
DAV:   5    -0.306424569706E+03    0.53114E-04   -0.19333E-03 60924   0.202E-01    0.999E-02
DAV:   6    -0.306424493567E+03    0.76138E-04   -0.10370E-03 53448   0.155E-01    0.672E-02
DAV:   7    -0.306424433305E+03    0.60262E-04   -0.25383E-04 34248   0.985E-02
  20 F= -.30642443E+03 E0= -.30642112E+03  d E =-.180791E-03
 trial-energy change:   -0.000181  1 .order   -0.000334   -0.000533   -0.000135
 step:   0.5463(harm=  0.5463)  dis= 0.00078  next Energy=  -306.424609 (dE=-0.356E-03)
 bond charge predicted
       N       E                     dE             d eps       ncg     rms          rms(c)
DAV:   1    -0.306424504898E+03   -0.11331E-04   -0.30958E-03 59364   0.253E-01    0.634E-02
DAV:   2    -0.306424654136E+03   -0.14924E-03   -0.15464E-03 68496   0.181E-01    0.113E-01
DAV:   3    -0.306424489971E+03    0.16417E-03   -0.12486E-03 56820   0.162E-01    0.506E-02
DAV:   4    -0.306424470879E+03    0.19092E-04   -0.18788E-04 27984   0.913E-02
  21 F= -.30642447E+03 E0= -.30642116E+03  d E =-.218366E-03
 curvature:  -0.27 expect dE=-0.164E-03 dE for cont linesearch -0.615E-05
 trial: gam= 0.32285 g(F)=  0.386E-03 g(S)=  0.219E-03 ort = 0.171E-03 (trialstep = 0.436E+00)
 search vector abs. value=  0.850E-03
 reached required accuracy - stopping structural energy minimisation
 writing wavefunctions
VASP is done!
