<?xml version="1.0" encoding="ISO-8859-1"?>
<modeling>
 <generator>
  <i name="program" type="string">vasp </i>
  <i name="version" type="string">5.4.4.18Apr17-6-g9f103f2a35  </i>
  <i name="subversion" type="string">(build Aug 09 2018 16:20:53) complex            parallel </i>
  <i name="platform" type="string">LinuxIFC </i>
  <i name="date" type="string">2020 04 30 </i>
  <i name="time" type="string">22:37:46 </i>
 </generator>
 <incar>
  <i type="string" name="SYSTEM"> Nb - Mo - Ta - Ti - V SQS</i>
  <i type="string" name="PREC">normal</i>
  <i type="int" name="ICHARG">     0</i>
  <i type="int" name="IBRION">     2</i>
  <i type="int" name="NSW">    50</i>
  <i type="int" name="ISIF">     3</i>
  <i name="ENCUT">    600.00000000</i>
  <i type="string" name="LREAL"> Auto</i>
  <i type="int" name="ISMEAR">     1</i>
  <i name="SIGMA">      0.20000000</i>
  <v type="int" name="KPOINT_BSE">    -1     0     0     0</v>
  <i type="string" name="GGA"> PS</i>
 </incar>
 <structure name="primitive_cell" >
  <crystal>
   <varray name="basis" >
    <v>      -3.16000000      -3.16000000      -3.16000000 </v>
    <v>       1.58000000       1.58000000      -7.90000000 </v>
    <v>       7.90000000      -7.90000000      -1.58000000 </v>
   </varray>
   <i name="volume">    473.31744000 </i>
   <varray name="rec_basis" >
    <v>      -0.13713080      -0.12658228      -0.05274262 </v>
    <v>       0.04219409       0.06329114      -0.10548523 </v>
    <v>       0.06329114      -0.06329114       0.00000000 </v>
   </varray>
  </crystal>
  <varray name="positions" >
   <v>      -0.03333333      -0.06666667       0.40000000 </v>
   <v>       0.30000000      -0.40000000       0.40000000 </v>
   <v>      -0.10000000      -0.20000000       0.20000000 </v>
   <v>       0.06666667       0.13333333       0.20000000 </v>
   <v>       0.46666667      -0.06666667       0.40000000 </v>
   <v>      -0.13333333      -0.26666667      -0.40000000 </v>
   <v>       0.03333333       0.06666667      -0.40000000 </v>
   <v>      -0.36666667       0.26666667       0.40000000 </v>
   <v>       0.40000000      -0.20000000       0.20000000 </v>
   <v>      -0.20000000      -0.40000000       0.40000000 </v>
   <v>      -0.43333333       0.13333333       0.20000000 </v>
   <v>       0.36666667      -0.26666667      -0.40000000 </v>
   <v>       0.13333333       0.26666667       0.40000000 </v>
   <v>      -0.46666667       0.06666667      -0.40000000 </v>
   <v>       0.23333333       0.46666667       0.20000000 </v>
   <v>       0.20000000       0.40000000      -0.40000000 </v>
   <v>       0.00000000       0.00000000       0.00000000 </v>
   <v>      -0.06666667      -0.13333333      -0.20000000 </v>
   <v>      -0.30000000       0.40000000      -0.40000000 </v>
   <v>      -0.26666667       0.46666667       0.20000000 </v>
   <v>       0.33333333      -0.33333333       0.00000000 </v>
   <v>       0.43333333      -0.13333333      -0.20000000 </v>
   <v>       0.26666667      -0.46666667      -0.20000000 </v>
   <v>      -0.33333333       0.33333333       0.00000000 </v>
   <v>      -0.40000000       0.20000000      -0.20000000 </v>
   <v>      -0.16666667      -0.33333333       0.00000000 </v>
   <v>      -0.23333333      -0.46666667      -0.20000000 </v>
   <v>       0.16666667       0.33333333       0.00000000 </v>
   <v>       0.10000000       0.20000000      -0.20000000 </v>
  </varray>
 </structure>
 <varray name="primitive_index" >
  <v type="int" >        1 </v>
  <v type="int" >       17 </v>
  <v type="int" >        6 </v>
  <v type="int" >       23 </v>
  <v type="int" >       19 </v>
  <v type="int" >       18 </v>
  <v type="int" >        5 </v>
  <v type="int" >        2 </v>
  <v type="int" >       15 </v>
  <v type="int" >        7 </v>
  <v type="int" >       14 </v>
  <v type="int" >       10 </v>
  <v type="int" >       11 </v>
  <v type="int" >       27 </v>
  <v type="int" >       29 </v>
  <v type="int" >       22 </v>
  <v type="int" >        3 </v>
  <v type="int" >       13 </v>
  <v type="int" >       25 </v>
  <v type="int" >        8 </v>
  <v type="int" >       28 </v>
  <v type="int" >       16 </v>
  <v type="int" >       21 </v>
  <v type="int" >        9 </v>
  <v type="int" >       26 </v>
  <v type="int" >       12 </v>
  <v type="int" >       24 </v>
  <v type="int" >       20 </v>
  <v type="int" >        4 </v>
 </varray>
 <kpoints>
  <generation param="Gamma">
   <v type="int" name="divisions">       7        7        7 </v>
   <v name="usershift">      0.00000000       0.00000000       0.00000000 </v>
   <v name="genvec1">      0.14285714       0.00000000       0.00000000 </v>
   <v name="genvec2">     -0.00000000       0.14285714       0.00000000 </v>
   <v name="genvec3">      0.00000000       0.00000000       0.14285714 </v>
   <v name="shift">      0.00000000       0.00000000       0.00000000 </v>
  </generation>
  <varray name="kpointlist" >
   <v>       0.00000000       0.00000000       0.00000000 </v>
   <v>       0.14285714       0.00000000      -0.00000000 </v>
   <v>       0.28571429       0.00000000       0.00000000 </v>
   <v>       0.42857143       0.00000000      -0.00000000 </v>
   <v>      -0.00000000       0.14285714       0.00000000 </v>
   <v>       0.14285714       0.14285714      -0.00000000 </v>
   <v>       0.28571429       0.14285714       0.00000000 </v>
   <v>       0.42857143       0.14285714      -0.00000000 </v>
   <v>      -0.42857143       0.14285714       0.00000000 </v>
   <v>      -0.28571429       0.14285714       0.00000000 </v>
   <v>      -0.14285714       0.14285714       0.00000000 </v>
   <v>       0.00000000       0.28571429      -0.00000000 </v>
   <v>       0.14285714       0.28571429      -0.00000000 </v>
   <v>       0.28571429       0.28571429      -0.00000000 </v>
   <v>       0.42857143       0.28571429      -0.00000000 </v>
   <v>      -0.42857143       0.28571429      -0.00000000 </v>
   <v>      -0.28571429       0.28571429      -0.00000000 </v>
   <v>      -0.14285714       0.28571429      -0.00000000 </v>
   <v>      -0.00000000       0.42857143      -0.00000000 </v>
   <v>       0.14285714       0.42857143       0.00000000 </v>
   <v>       0.28571429       0.42857143       0.00000000 </v>
   <v>       0.42857143       0.42857143      -0.00000000 </v>
   <v>      -0.42857143       0.42857143       0.00000000 </v>
   <v>      -0.28571429       0.42857143      -0.00000000 </v>
   <v>      -0.14285714       0.42857143      -0.00000000 </v>
   <v>       0.00000000       0.00000000       0.14285714 </v>
   <v>       0.14285714       0.00000000       0.14285714 </v>
   <v>       0.28571429       0.00000000       0.14285714 </v>
   <v>       0.42857143       0.00000000       0.14285714 </v>
   <v>      -0.42857143       0.00000000       0.14285714 </v>
   <v>      -0.28571429       0.00000000       0.14285714 </v>
   <v>      -0.14285714      -0.00000000       0.14285714 </v>
   <v>      -0.00000000       0.14285714       0.14285714 </v>
   <v>       0.14285714       0.14285714       0.14285714 </v>
   <v>       0.28571429       0.14285714       0.14285714 </v>
   <v>       0.42857143       0.14285714       0.14285714 </v>
   <v>      -0.42857143       0.14285714       0.14285714 </v>
   <v>      -0.28571429       0.14285714       0.14285714 </v>
   <v>      -0.14285714       0.14285714       0.14285714 </v>
   <v>      -0.00000000       0.28571429       0.14285714 </v>
   <v>       0.14285714       0.28571429       0.14285714 </v>
   <v>       0.28571429       0.28571429       0.14285714 </v>
   <v>       0.42857143       0.28571429       0.14285714 </v>
   <v>      -0.42857143       0.28571429       0.14285714 </v>
   <v>      -0.28571429       0.28571429       0.14285714 </v>
   <v>      -0.14285714       0.28571429       0.14285714 </v>
   <v>       0.00000000       0.42857143       0.14285714 </v>
   <v>       0.14285714       0.42857143       0.14285714 </v>
   <v>       0.28571429       0.42857143       0.14285714 </v>
   <v>       0.42857143       0.42857143       0.14285714 </v>
   <v>      -0.42857143       0.42857143       0.14285714 </v>
   <v>      -0.28571429       0.42857143       0.14285714 </v>
   <v>      -0.14285714       0.42857143       0.14285714 </v>
   <v>       0.00000000      -0.42857143       0.14285714 </v>
   <v>       0.14285714      -0.42857143       0.14285714 </v>
   <v>       0.28571429      -0.42857143       0.14285714 </v>
   <v>       0.42857143      -0.42857143       0.14285714 </v>
   <v>      -0.42857143      -0.42857143       0.14285714 </v>
   <v>      -0.28571429      -0.42857143       0.14285714 </v>
   <v>      -0.14285714      -0.42857143       0.14285714 </v>
   <v>       0.00000000      -0.28571429       0.14285714 </v>
   <v>       0.14285714      -0.28571429       0.14285714 </v>
   <v>       0.28571429      -0.28571429       0.14285714 </v>
   <v>       0.42857143      -0.28571429       0.14285714 </v>
   <v>      -0.42857143      -0.28571429       0.14285714 </v>
   <v>      -0.28571429      -0.28571429       0.14285714 </v>
   <v>      -0.14285714      -0.28571429       0.14285714 </v>
   <v>       0.00000000      -0.14285714       0.14285714 </v>
   <v>       0.14285714      -0.14285714       0.14285714 </v>
   <v>       0.28571429      -0.14285714       0.14285714 </v>
   <v>       0.42857143      -0.14285714       0.14285714 </v>
   <v>      -0.42857143      -0.14285714       0.14285714 </v>
   <v>      -0.28571429      -0.14285714       0.14285714 </v>
   <v>      -0.14285714      -0.14285714       0.14285714 </v>
   <v>       0.00000000       0.00000000       0.28571429 </v>
   <v>       0.14285714       0.00000000       0.28571429 </v>
   <v>       0.28571429       0.00000000       0.28571429 </v>
   <v>       0.42857143       0.00000000       0.28571429 </v>
   <v>      -0.42857143      -0.00000000       0.28571429 </v>
   <v>      -0.28571429      -0.00000000       0.28571429 </v>
   <v>      -0.14285714      -0.00000000       0.28571429 </v>
   <v>      -0.00000000       0.14285714       0.28571429 </v>
   <v>       0.14285714       0.14285714       0.28571429 </v>
   <v>       0.28571429       0.14285714       0.28571429 </v>
   <v>       0.42857143       0.14285714       0.28571429 </v>
   <v>      -0.42857143       0.14285714       0.28571429 </v>
   <v>      -0.28571429       0.14285714       0.28571429 </v>
   <v>      -0.14285714       0.14285714       0.28571429 </v>
   <v>      -0.00000000       0.28571429       0.28571429 </v>
   <v>       0.14285714       0.28571429       0.28571429 </v>
   <v>       0.28571429       0.28571429       0.28571429 </v>
   <v>       0.42857143       0.28571429       0.28571429 </v>
   <v>      -0.42857143       0.28571429       0.28571429 </v>
   <v>      -0.28571429       0.28571429       0.28571429 </v>
   <v>      -0.14285714       0.28571429       0.28571429 </v>
   <v>       0.00000000       0.42857143       0.28571429 </v>
   <v>       0.14285714       0.42857143       0.28571429 </v>
   <v>       0.28571429       0.42857143       0.28571429 </v>
   <v>       0.42857143       0.42857143       0.28571429 </v>
   <v>      -0.42857143       0.42857143       0.28571429 </v>
   <v>      -0.28571429       0.42857143       0.28571429 </v>
   <v>      -0.14285714       0.42857143       0.28571429 </v>
   <v>      -0.00000000      -0.42857143       0.28571429 </v>
   <v>       0.14285714      -0.42857143       0.28571429 </v>
   <v>       0.28571429      -0.42857143       0.28571429 </v>
   <v>       0.42857143      -0.42857143       0.28571429 </v>
   <v>      -0.42857143      -0.42857143       0.28571429 </v>
   <v>      -0.28571429      -0.42857143       0.28571429 </v>
   <v>      -0.14285714      -0.42857143       0.28571429 </v>
   <v>       0.00000000      -0.28571429       0.28571429 </v>
   <v>       0.14285714      -0.28571429       0.28571429 </v>
   <v>       0.28571429      -0.28571429       0.28571429 </v>
   <v>       0.42857143      -0.28571429       0.28571429 </v>
   <v>      -0.42857143      -0.28571429       0.28571429 </v>
   <v>      -0.28571429      -0.28571429       0.28571429 </v>
   <v>      -0.14285714      -0.28571429       0.28571429 </v>
   <v>       0.00000000      -0.14285714       0.28571429 </v>
   <v>       0.14285714      -0.14285714       0.28571429 </v>
   <v>       0.28571429      -0.14285714       0.28571429 </v>
   <v>       0.42857143      -0.14285714       0.28571429 </v>
   <v>      -0.42857143      -0.14285714       0.28571429 </v>
   <v>      -0.28571429      -0.14285714       0.28571429 </v>
   <v>      -0.14285714      -0.14285714       0.28571429 </v>
   <v>       0.00000000       0.00000000       0.42857143 </v>
   <v>       0.14285714       0.00000000       0.42857143 </v>
   <v>       0.28571429       0.00000000       0.42857143 </v>
   <v>       0.42857143      -0.00000000       0.42857143 </v>
   <v>      -0.42857143      -0.00000000       0.42857143 </v>
   <v>      -0.28571429       0.00000000       0.42857143 </v>
   <v>      -0.14285714      -0.00000000       0.42857143 </v>
   <v>      -0.00000000       0.14285714       0.42857143 </v>
   <v>       0.14285714       0.14285714       0.42857143 </v>
   <v>       0.28571429       0.14285714       0.42857143 </v>
   <v>       0.42857143       0.14285714       0.42857143 </v>
   <v>      -0.42857143       0.14285714       0.42857143 </v>
   <v>      -0.28571429       0.14285714       0.42857143 </v>
   <v>      -0.14285714       0.14285714       0.42857143 </v>
   <v>       0.00000000       0.28571429       0.42857143 </v>
   <v>       0.14285714       0.28571429       0.42857143 </v>
   <v>       0.28571429       0.28571429       0.42857143 </v>
   <v>       0.42857143       0.28571429       0.42857143 </v>
   <v>      -0.42857143       0.28571429       0.42857143 </v>
   <v>      -0.28571429       0.28571429       0.42857143 </v>
   <v>      -0.14285714       0.28571429       0.42857143 </v>
   <v>       0.00000000       0.42857143       0.42857143 </v>
   <v>       0.14285714       0.42857143       0.42857143 </v>
   <v>       0.28571429       0.42857143       0.42857143 </v>
   <v>       0.42857143       0.42857143       0.42857143 </v>
   <v>      -0.42857143       0.42857143       0.42857143 </v>
   <v>      -0.28571429       0.42857143       0.42857143 </v>
   <v>      -0.14285714       0.42857143       0.42857143 </v>
   <v>       0.00000000      -0.42857143       0.42857143 </v>
   <v>       0.14285714      -0.42857143       0.42857143 </v>
   <v>       0.28571429      -0.42857143       0.42857143 </v>
   <v>       0.42857143      -0.42857143       0.42857143 </v>
   <v>      -0.42857143      -0.42857143       0.42857143 </v>
   <v>      -0.28571429      -0.42857143       0.42857143 </v>
   <v>      -0.14285714      -0.42857143       0.42857143 </v>
   <v>      -0.00000000      -0.28571429       0.42857143 </v>
   <v>       0.14285714      -0.28571429       0.42857143 </v>
   <v>       0.28571429      -0.28571429       0.42857143 </v>
   <v>       0.42857143      -0.28571429       0.42857143 </v>
   <v>      -0.42857143      -0.28571429       0.42857143 </v>
   <v>      -0.28571429      -0.28571429       0.42857143 </v>
   <v>      -0.14285714      -0.28571429       0.42857143 </v>
   <v>       0.00000000      -0.14285714       0.42857143 </v>
   <v>       0.14285714      -0.14285714       0.42857143 </v>
   <v>       0.28571429      -0.14285714       0.42857143 </v>
   <v>       0.42857143      -0.14285714       0.42857143 </v>
   <v>      -0.42857143      -0.14285714       0.42857143 </v>
   <v>      -0.28571429      -0.14285714       0.42857143 </v>
   <v>      -0.14285714      -0.14285714       0.42857143 </v>
  </varray>
  <varray name="weights" >
   <v>       0.00291545 </v>
   <v>       0.00583090 </v>
   <v>       0.00583090 </v>
   <v>       0.00583090 </v>
   <v>       0.00583090 </v>
   <v>       0.00583090 </v>
   <v>       0.00583090 </v>
   <v>       0.00583090 </v>
   <v>       0.00583090 </v>
   <v>       0.00583090 </v>
   <v>       0.00583090 </v>
   <v>       0.00583090 </v>
   <v>       0.00583090 </v>
   <v>       0.00583090 </v>
   <v>       0.00583090 </v>
   <v>       0.00583090 </v>
   <v>       0.00583090 </v>
   <v>       0.00583090 </v>
   <v>       0.00583090 </v>
   <v>       0.00583090 </v>
   <v>       0.00583090 </v>
   <v>       0.00583090 </v>
   <v>       0.00583090 </v>
   <v>       0.00583090 </v>
   <v>       0.00583090 </v>
   <v>       0.00583090 </v>
   <v>       0.00583090 </v>
   <v>       0.00583090 </v>
   <v>       0.00583090 </v>
   <v>       0.00583090 </v>
   <v>       0.00583090 </v>
   <v>       0.00583090 </v>
   <v>       0.00583090 </v>
   <v>       0.00583090 </v>
   <v>       0.00583090 </v>
   <v>       0.00583090 </v>
   <v>       0.00583090 </v>
   <v>       0.00583090 </v>
   <v>       0.00583090 </v>
   <v>       0.00583090 </v>
   <v>       0.00583090 </v>
   <v>       0.00583090 </v>
   <v>       0.00583090 </v>
   <v>       0.00583090 </v>
   <v>       0.00583090 </v>
   <v>       0.00583090 </v>
   <v>       0.00583090 </v>
   <v>       0.00583090 </v>
   <v>       0.00583090 </v>
   <v>       0.00583090 </v>
   <v>       0.00583090 </v>
   <v>       0.00583090 </v>
   <v>       0.00583090 </v>
   <v>       0.00583090 </v>
   <v>       0.00583090 </v>
   <v>       0.00583090 </v>
   <v>       0.00583090 </v>
   <v>       0.00583090 </v>
   <v>       0.00583090 </v>
   <v>       0.00583090 </v>
   <v>       0.00583090 </v>
   <v>       0.00583090 </v>
   <v>       0.00583090 </v>
   <v>       0.00583090 </v>
   <v>       0.00583090 </v>
   <v>       0.00583090 </v>
   <v>       0.00583090 </v>
   <v>       0.00583090 </v>
   <v>       0.00583090 </v>
   <v>       0.00583090 </v>
   <v>       0.00583090 </v>
   <v>       0.00583090 </v>
   <v>       0.00583090 </v>
   <v>       0.00583090 </v>
   <v>       0.00583090 </v>
   <v>       0.00583090 </v>
   <v>       0.00583090 </v>
   <v>       0.00583090 </v>
   <v>       0.00583090 </v>
   <v>       0.00583090 </v>
   <v>       0.00583090 </v>
   <v>       0.00583090 </v>
   <v>       0.00583090 </v>
   <v>       0.00583090 </v>
   <v>       0.00583090 </v>
   <v>       0.00583090 </v>
   <v>       0.00583090 </v>
   <v>       0.00583090 </v>
   <v>       0.00583090 </v>
   <v>       0.00583090 </v>
   <v>       0.00583090 </v>
   <v>       0.00583090 </v>
   <v>       0.00583090 </v>
   <v>       0.00583090 </v>
   <v>       0.00583090 </v>
   <v>       0.00583090 </v>
   <v>       0.00583090 </v>
   <v>       0.00583090 </v>
   <v>       0.00583090 </v>
   <v>       0.00583090 </v>
   <v>       0.00583090 </v>
   <v>       0.00583090 </v>
   <v>       0.00583090 </v>
   <v>       0.00583090 </v>
   <v>       0.00583090 </v>
   <v>       0.00583090 </v>
   <v>       0.00583090 </v>
   <v>       0.00583090 </v>
   <v>       0.00583090 </v>
   <v>       0.00583090 </v>
   <v>       0.00583090 </v>
   <v>       0.00583090 </v>
   <v>       0.00583090 </v>
   <v>       0.00583090 </v>
   <v>       0.00583090 </v>
   <v>       0.00583090 </v>
   <v>       0.00583090 </v>
   <v>       0.00583090 </v>
   <v>       0.00583090 </v>
   <v>       0.00583090 </v>
   <v>       0.00583090 </v>
   <v>       0.00583090 </v>
   <v>       0.00583090 </v>
   <v>       0.00583090 </v>
   <v>       0.00583090 </v>
   <v>       0.00583090 </v>
   <v>       0.00583090 </v>
   <v>       0.00583090 </v>
   <v>       0.00583090 </v>
   <v>       0.00583090 </v>
   <v>       0.00583090 </v>
   <v>       0.00583090 </v>
   <v>       0.00583090 </v>
   <v>       0.00583090 </v>
   <v>       0.00583090 </v>
   <v>       0.00583090 </v>
   <v>       0.00583090 </v>
   <v>       0.00583090 </v>
   <v>       0.00583090 </v>
   <v>       0.00583090 </v>
   <v>       0.00583090 </v>
   <v>       0.00583090 </v>
   <v>       0.00583090 </v>
   <v>       0.00583090 </v>
   <v>       0.00583090 </v>
   <v>       0.00583090 </v>
   <v>       0.00583090 </v>
   <v>       0.00583090 </v>
   <v>       0.00583090 </v>
   <v>       0.00583090 </v>
   <v>       0.00583090 </v>
   <v>       0.00583090 </v>
   <v>       0.00583090 </v>
   <v>       0.00583090 </v>
   <v>       0.00583090 </v>
   <v>       0.00583090 </v>
   <v>       0.00583090 </v>
   <v>       0.00583090 </v>
   <v>       0.00583090 </v>
   <v>       0.00583090 </v>
   <v>       0.00583090 </v>
   <v>       0.00583090 </v>
   <v>       0.00583090 </v>
   <v>       0.00583090 </v>
   <v>       0.00583090 </v>
   <v>       0.00583090 </v>
   <v>       0.00583090 </v>
   <v>       0.00583090 </v>
   <v>       0.00583090 </v>
   <v>       0.00583090 </v>
   <v>       0.00583090 </v>
   <v>       0.00583090 </v>
  </varray>
 </kpoints>
 <parameters>
  <separator name="general" >
   <i type="string" name="SYSTEM">Nb - Mo - Ta - Ti - V SQS</i>
   <i type="logical" name="LCOMPAT"> F  </i>
  </separator>
  <separator name="electronic" >
   <i type="string" name="PREC">normal</i>
   <i name="ENMAX">    600.00000000</i>
   <i name="ENAUG">    455.65900000</i>
   <i name="EDIFF">      0.00010000</i>
   <i type="int" name="IALGO">    38</i>
   <i type="int" name="IWAVPR">    11</i>
   <i type="int" name="NBANDS">   120</i>
   <i name="NELECT">    185.00000000</i>
   <i type="int" name="TURBO">     0</i>
   <i type="int" name="IRESTART">     0</i>
   <i type="int" name="NREBOOT">     0</i>
   <i type="int" name="NMIN">     0</i>
   <i name="EREF">      0.00000000</i>
   <separator name="electronic smearing" >
    <i type="int" name="ISMEAR">     1</i>
    <i name="SIGMA">      0.20000000</i>
    <i name="KSPACING">      0.50000000</i>
    <i type="logical" name="KGAMMA"> T  </i>
   </separator>
   <separator name="electronic projectors" >
    <i type="logical" name="LREAL"> T  </i>
    <v name="ROPT">     -0.00050000     -0.00050000     -0.00050000     -0.00050000     -0.00050000</v>
    <i type="int" name="LMAXPAW">  -100</i>
    <i type="int" name="LMAXMIX">     2</i>
    <i type="logical" name="NLSPLINE"> F  </i>
   </separator>
   <separator name="electronic startup" >
    <i type="int" name="ISTART">     0</i>
    <i type="int" name="ICHARG">     0</i>
    <i type="int" name="INIWAV">     1</i>
   </separator>
   <separator name="electronic spin" >
    <i type="int" name="ISPIN">     1</i>
    <i type="logical" name="LNONCOLLINEAR"> F  </i>
    <v name="MAGMOM">      1.00000000      1.00000000      1.00000000      1.00000000      1.00000000      1.00000000      1.00000000      1.00000000      1.00000000      1.00000000      1.00000000      1.00000000      1.00000000      1.00000000      1.00000000      1.00000000      1.00000000      1.00000000      1.00000000      1.00000000
      1.00000000      1.00000000      1.00000000      1.00000000      1.00000000      1.00000000      1.00000000      1.00000000      1.00000000</v>
    <i name="NUPDOWN">     -1.00000000</i>
    <i type="logical" name="LSORBIT"> F  </i>
    <v name="SAXIS">      0.00000000      0.00000000      1.00000000</v>
    <i type="logical" name="LSPIRAL"> F  </i>
    <v name="QSPIRAL">      0.00000000      0.00000000      0.00000000</v>
    <i type="logical" name="LZEROZ"> F  </i>
   </separator>
   <separator name="electronic exchange-correlation" >
    <i type="logical" name="LASPH"> F  </i>
    <i type="logical" name="LMETAGGA"> F  </i>
   </separator>
   <separator name="electronic convergence" >
    <i type="int" name="NELM">    60</i>
    <i type="int" name="NELMDL">    -5</i>
    <i type="int" name="NELMIN">     2</i>
    <i name="ENINI">    600.00000000</i>
    <separator name="electronic convergence detail" >
     <i type="logical" name="LDIAG"> T  </i>
     <i type="logical" name="LSUBROT"> F  </i>
     <i name="WEIMIN">      0.00100000</i>
     <i name="EBREAK">      0.00000021</i>
     <i name="DEPER">      0.30000000</i>
     <i type="int" name="NRMM">     4</i>
     <i name="TIME">      0.40000000</i>
    </separator>
   </separator>
   <separator name="electronic mixer" >
    <i name="AMIX">      0.40000000</i>
    <i name="BMIX">      1.00000000</i>
    <i name="AMIN">      0.10000000</i>
    <i name="AMIX_MAG">      1.60000000</i>
    <i name="BMIX_MAG">      1.00000000</i>
    <separator name="electronic mixer details" >
     <i type="int" name="IMIX">     4</i>
     <i type="logical" name="MIXFIRST"> F  </i>
     <i type="int" name="MAXMIX">   -45</i>
     <i name="WC">    100.00000000</i>
     <i type="int" name="INIMIX">     1</i>
     <i type="int" name="MIXPRE">     1</i>
     <i type="int" name="MREMOVE">     5</i>
    </separator>
   </separator>
   <separator name="electronic dipolcorrection" >
    <i type="logical" name="LDIPOL"> F  </i>
    <i type="logical" name="LMONO"> F  </i>
    <i type="int" name="IDIPOL">     0</i>
    <i name="EPSILON">      1.00000000</i>
    <v name="DIPOL">   -100.00000000   -100.00000000   -100.00000000</v>
    <i name="EFIELD">      0.00000000</i>
   </separator>
  </separator>
  <separator name="grids" >
   <i type="int" name="NGX">    36</i>
   <i type="int" name="NGY">    50</i>
   <i type="int" name="NGZ">    70</i>
   <i type="int" name="NGXF">    72</i>
   <i type="int" name="NGYF">   100</i>
   <i type="int" name="NGZF">   140</i>
   <i type="logical" name="ADDGRID"> F  </i>
  </separator>
  <separator name="ionic" >
   <i type="int" name="NSW">    50</i>
   <i type="int" name="IBRION">     2</i>
   <i type="int" name="MDALGO">     0</i>
   <i type="int" name="ISIF">     3</i>
   <i name="PSTRESS">      0.00000000</i>
   <i name="EDIFFG">      0.00100000</i>
   <i type="int" name="NFREE">     1</i>
   <i name="POTIM">      0.50000000</i>
   <i name="SMASS">     -3.00000000</i>
   <i name="SCALEE">      1.00000000</i>
  </separator>
  <separator name="ionic md" >
   <i name="TEBEG">      0.00010000</i>
   <i name="TEEND">      0.00010000</i>
   <i type="int" name="NBLOCK">     1</i>
   <i type="int" name="KBLOCK">    50</i>
   <i type="int" name="NPACO">   256</i>
   <i name="APACO">     16.00000000</i>
  </separator>
  <separator name="symmetry" >
   <i type="int" name="ISYM">     2</i>
   <i name="SYMPREC">      0.00001000</i>
  </separator>
  <separator name="dos" >
   <i type="int" name="LORBIT">     0</i>
   <v name="RWIGS">     -1.00000000     -1.00000000     -1.00000000     -1.00000000     -1.00000000</v>
   <i type="int" name="NEDOS">   301</i>
   <i name="EMIN">     10.00000000</i>
   <i name="EMAX">    -10.00000000</i>
   <i name="EFERMI">      0.00000000</i>
  </separator>
  <separator name="writing" >
   <i type="int" name="NWRITE">     2</i>
   <i type="logical" name="LWAVE"> T  </i>
   <i type="logical" name="LDOWNSAMPLE"> F  </i>
   <i type="logical" name="LCHARG"> T  </i>
   <i type="logical" name="LPARD"> F  </i>
   <i type="logical" name="LVTOT"> F  </i>
   <i type="logical" name="LVHAR"> F  </i>
   <i type="logical" name="LELF"> F  </i>
   <i type="logical" name="LOPTICS"> F  </i>
   <v name="STM">      0.00000000      0.00000000      0.00000000      0.00000000      0.00000000      0.00000000      0.00000000</v>
  </separator>
  <separator name="performance" >
   <i type="int" name="NPAR">    12</i>
   <i type="int" name="NSIM">     4</i>
   <i type="int" name="NBLK">    -1</i>
   <i type="logical" name="LPLANE"> T  </i>
   <i type="logical" name="LSCALAPACK"> T  </i>
   <i type="logical" name="LSCAAWARE"> F  </i>
   <i type="logical" name="LSCALU"> F  </i>
   <i type="logical" name="LASYNC"> F  </i>
   <i type="logical" name="LORBITALREAL"> F  </i>
  </separator>
  <separator name="miscellaneous" >
   <i type="int" name="IDIOT">     3</i>
   <i type="int" name="ISPECIAL">     0</i>
   <i type="logical" name="LMUSIC"> F  </i>
   <v name="POMASS">     92.91000000     95.94000000    180.94800000     47.88000000     50.94100000</v>
   <v name="DARWINR">      0.00000000      0.00000000      0.00000000      0.00000000      0.00000000</v>
   <v name="DARWINV">      1.00000000      1.00000000      1.00000000      1.00000000      1.00000000</v>
   <i type="logical" name="LCORR"> T  </i>
  </separator>
  <i type="logical" name="GGA_COMPAT"> T  </i>
  <i type="logical" name="LBERRY"> F  </i>
  <i type="int" name="ICORELEVEL">     0</i>
  <i type="logical" name="LDAU"> F  </i>
  <i type="int" name="I_CONSTRAINED_M">     0</i>
  <separator name="electronic exchange-correlation" >
   <i type="string" name="GGA">PS</i>
   <i type="int" name="VOSKOWN">     0</i>
   <i type="logical" name="LHFCALC"> F  </i>
   <i type="string" name="PRECFOCK"></i>
   <i type="logical" name="LSYMGRAD"> F  </i>
   <i type="logical" name="LHFONE"> F  </i>
   <i type="logical" name="LRHFCALC"> F  </i>
   <i type="logical" name="LTHOMAS"> F  </i>
   <i type="logical" name="LMODELHF"> F  </i>
   <i name="ENCUT4O">     -1.00000000</i>
   <i type="int" name="EXXOEP">     0</i>
   <i type="int" name="FOURORBIT">     0</i>
   <i name="AEXX">      0.00000000</i>
   <i name="HFALPHA">      0.00000000</i>
   <i name="MCALPHA">      0.00000000</i>
   <i name="ALDAX">      1.00000000</i>
   <i name="AGGAX">      1.00000000</i>
   <i name="ALDAC">      1.00000000</i>
   <i name="AGGAC">      1.00000000</i>
   <i type="int" name="NKREDX">     1</i>
   <i type="int" name="NKREDY">     1</i>
   <i type="int" name="NKREDZ">     1</i>
   <i type="logical" name="SHIFTRED"> F  </i>
   <i type="logical" name="ODDONLY"> F  </i>
   <i type="logical" name="EVENONLY"> F  </i>
   <i type="int" name="LMAXFOCK">     0</i>
   <i type="int" name="NMAXFOCKAE">     0</i>
   <i type="logical" name="LFOCKAEDFT"> F  </i>
   <i name="HFSCREEN">      0.00000000</i>
   <i name="HFSCREENC">      0.00000000</i>
   <i type="int" name="NBANDSGWLOW">     0</i>
  </separator>
  <separator name="vdW DFT" >
   <i type="logical" name="LUSE_VDW"> F  </i>
   <i name="Zab_VDW">     -0.84910000</i>
   <i name="PARAM1">      0.12340000</i>
   <i name="PARAM2">      1.00000000</i>
   <i name="PARAM3">      0.00000000</i>
  </separator>
  <separator name="model GW" >
   <i type="int" name="MODEL_GW">     0</i>
   <i name="MODEL_EPS0">      9.79277462</i>
   <i name="MODEL_ALPHA">      1.00000000</i>
  </separator>
  <separator name="linear response parameters" >
   <i type="logical" name="LEPSILON"> F  </i>
   <i type="logical" name="LRPA"> F  </i>
   <i type="logical" name="LNABLA"> F  </i>
   <i type="logical" name="LVEL"> F  </i>
   <i type="int" name="KINTER">     0</i>
   <i name="CSHIFT">      0.10000000</i>
   <i name="OMEGAMAX">     -1.00000000</i>
   <i name="DEG_THRESHOLD">      0.00200000</i>
   <i name="RTIME">     -0.10000000</i>
   <i name="WPLASMAI">      0.00000000</i>
   <v name="DFIELD">      0.00000000      0.00000000      0.00000000</v>
   <v name="WPLASMA">      0.00000000      0.00000000      0.00000000      0.00000000      0.00000000      0.00000000      0.00000000      0.00000000      0.00000000</v>
  </separator>
  <separator name="orbital magnetization" >
   <i type="logical" name="NUCIND"> F  </i>
   <v name="MAGPOS">      0.00000000      0.00000000      0.00000000</v>
   <i type="logical" name="LNICSALL"> T  </i>
   <i type="logical" name="ORBITALMAG"> F  </i>
   <i type="logical" name="LMAGBLOCH"> F  </i>
   <i type="logical" name="LCHIMAG"> F  </i>
   <i type="logical" name="LGAUGE"> T  </i>
   <i type="int" name="MAGATOM">     0</i>
   <v name="MAGDIPOL">      0.00000000      0.00000000      0.00000000</v>
   <v name="AVECCONST">      0.00000000      0.00000000      0.00000000</v>
  </separator>
  <separator name="response functions" >
   <i type="logical" name="LADDER"> F  </i>
   <i type="logical" name="LRPAFORCE"> F  </i>
   <i type="logical" name="LFXC"> F  </i>
   <i type="logical" name="LHARTREE"> T  </i>
   <i type="int" name="IBSE">     0</i>
   <v type="int" name="KPOINT">    -1     0     0     0</v>
   <i type="logical" name="LTCTE"> F  </i>
   <i type="logical" name="LTETE"> F  </i>
   <i type="logical" name="LTRIPLET"> F  </i>
   <i type="logical" name="LFXCEPS"> F  </i>
   <i type="logical" name="LFXHEG"> F  </i>
   <i type="int" name="NATURALO">     2</i>
   <i type="logical" name="L2ORDER"> F  </i>
   <i type="logical" name="LMP2LT"> F  </i>
   <i type="logical" name="LUSEW"> F  </i>
   <i name="ENCUTGW">     -2.00000000</i>
   <i name="ENCUTGWSOFT">     -2.00000000</i>
   <i name="ENCUTLF">     -1.00000000</i>
   <i type="int" name="LMAXMP2">    -1</i>
   <i name="SCISSOR">      0.00000000</i>
   <i type="int" name="NOMEGA">     0</i>
   <i type="int" name="NOMEGAR">     0</i>
   <i type="int" name="NBANDSGW">    -1</i>
   <i type="int" name="NBANDSO">    -1</i>
   <i type="int" name="NBANDSV">    -1</i>
   <i type="int" name="NELM">     1</i>
   <i type="int" name="NELMHF">     1</i>
   <i type="int" name="DIM">     3</i>
   <i type="int" name="ANTIRES">     0</i>
   <i name="OMEGAMAX">    -30.00000000</i>
   <i name="OMEGAMIN">    -30.00000000</i>
   <i name="OMEGATL">   -200.00000000</i>
   <i type="int" name="OMEGAGRID">   140</i>
   <i name="CSHIFT">     -0.10000000</i>
   <i type="logical" name="SELFENERGY"> F  </i>
   <i type="logical" name="LSPECTRAL"> F  </i>
   <i type="logical" name="LSPECTRALGW"> F  </i>
   <i type="logical" name="LSINGLES"> F  </i>
   <i type="logical" name="LFERMIGW"> F  </i>
   <i type="logical" name="ODDONLYGW"> F  </i>
   <i type="logical" name="EVENONLYGW"> F  </i>
   <i type="int" name="NKREDLFX">     1</i>
   <i type="int" name="NKREDLFY">     1</i>
   <i type="int" name="NKREDLFZ">     1</i>
   <i type="int" name="MAXMEM">  2800</i>
   <i type="int" name="TELESCOPE">     0</i>
   <i type="int" name="TAUPAR">     1</i>
   <i type="int" name="OMEGAPAR">    -1</i>
   <i name="LAMBDA">      1.00000000</i>
  </separator>
  <separator name="External order field" >
   <i name="OFIELD_KAPPA">      0.00000000</i>
   <v name="OFIELD_K">      0.00000000      0.00000000      0.00000000</v>
   <i name="OFIELD_Q6_NEAR">      0.00000000</i>
   <i name="OFIELD_Q6_FAR">      0.00000000</i>
   <i name="OFIELD_A">      0.00000000</i>
  </separator>
  <separator name="solvation model" >
   <i type="logical" name="LSOL"> F  </i>
  </separator>
 </parameters>
 <atominfo>
  <atoms>      29 </atoms>
  <types>       5 </types>
  <array name="atoms" >
   <dimension dim="1">ion</dimension>
   <field type="string">element</field>
   <field type="int">atomtype</field>
   <set>
    <rc><c>Nb</c><c>   1</c></rc>
    <rc><c>Nb</c><c>   1</c></rc>
    <rc><c>Nb</c><c>   1</c></rc>
    <rc><c>Nb</c><c>   1</c></rc>
    <rc><c>Nb</c><c>   1</c></rc>
    <rc><c>Mo</c><c>   2</c></rc>
    <rc><c>Mo</c><c>   2</c></rc>
    <rc><c>Mo</c><c>   2</c></rc>
    <rc><c>Mo</c><c>   2</c></rc>
    <rc><c>Mo</c><c>   2</c></rc>
    <rc><c>Mo</c><c>   2</c></rc>
    <rc><c>Ta</c><c>   3</c></rc>
    <rc><c>Ta</c><c>   3</c></rc>
    <rc><c>Ta</c><c>   3</c></rc>
    <rc><c>Ta</c><c>   3</c></rc>
    <rc><c>Ta</c><c>   3</c></rc>
    <rc><c>Ta</c><c>   3</c></rc>
    <rc><c>Ti</c><c>   4</c></rc>
    <rc><c>Ti</c><c>   4</c></rc>
    <rc><c>Ti</c><c>   4</c></rc>
    <rc><c>Ti</c><c>   4</c></rc>
    <rc><c>Ti</c><c>   4</c></rc>
    <rc><c>Ti</c><c>   4</c></rc>
    <rc><c>V </c><c>   5</c></rc>
    <rc><c>V </c><c>   5</c></rc>
    <rc><c>V </c><c>   5</c></rc>
    <rc><c>V </c><c>   5</c></rc>
    <rc><c>V </c><c>   5</c></rc>
    <rc><c>V </c><c>   5</c></rc>
   </set>
  </array>
  <array name="atomtypes" >
   <dimension dim="1">type</dimension>
   <field type="int">atomspertype</field>
   <field type="string">element</field>
   <field>mass</field>
   <field>valence</field>
   <field type="string">pseudopotential</field>
   <set>
    <rc><c>   5</c><c>Nb</c><c>     92.91000000</c><c>     13.00000000</c><c>  PAW_PBE Nb_sv 25May2007               </c></rc>
    <rc><c>   6</c><c>Mo</c><c>     95.94000000</c><c>      6.00000000</c><c>  PAW_PBE Mo 08Apr2002                  </c></rc>
    <rc><c>   6</c><c>Ta</c><c>    180.94800000</c><c>      5.00000000</c><c>  PAW_PBE Ta 17Jan2003                  </c></rc>
    <rc><c>   6</c><c>Ti</c><c>     47.88000000</c><c>      4.00000000</c><c>  PAW_PBE Ti 08Apr2002                  </c></rc>
    <rc><c>   6</c><c>V </c><c>     50.94100000</c><c>      5.00000000</c><c>  PAW_PBE V 08Apr2002                   </c></rc>
   </set>
  </array>
 </atominfo>
 <structure name="initialpos" >
  <crystal>
   <varray name="basis" >
    <v>      -3.16000000      -3.16000000      -3.16000000 </v>
    <v>       1.58000000       1.58000000      -7.90000000 </v>
    <v>       7.90000000      -7.90000000      -1.58000000 </v>
   </varray>
   <i name="volume">    473.31744000 </i>
   <varray name="rec_basis" >
    <v>      -0.13713080      -0.12658228      -0.05274262 </v>
    <v>       0.04219409       0.06329114      -0.10548523 </v>
    <v>       0.06329114      -0.06329114       0.00000000 </v>
   </varray>
  </crystal>
  <varray name="positions" >
   <v>       0.96666667       0.93333333       0.40000000 </v>
   <v>       0.63333333       0.26666667       0.40000000 </v>
   <v>       0.00000000       0.00000000       0.00000000 </v>
   <v>       0.10000000       0.20000000       0.80000000 </v>
   <v>       0.03333333       0.06666667       0.60000000 </v>
   <v>       0.90000000       0.80000000       0.20000000 </v>
   <v>       0.80000000       0.60000000       0.40000000 </v>
   <v>       0.73333333       0.46666667       0.20000000 </v>
   <v>       0.66666667       0.33333333       0.00000000 </v>
   <v>       0.36666667       0.73333333       0.60000000 </v>
   <v>       0.13333333       0.26666667       0.40000000 </v>
   <v>       0.83333333       0.66666667       0.00000000 </v>
   <v>       0.93333333       0.86666667       0.80000000 </v>
   <v>       0.56666667       0.13333333       0.20000000 </v>
   <v>       0.40000000       0.80000000       0.20000000 </v>
   <v>       0.43333333       0.86666667       0.80000000 </v>
   <v>       0.30000000       0.60000000       0.40000000 </v>
   <v>       0.86666667       0.73333333       0.60000000 </v>
   <v>       0.46666667       0.93333333       0.40000000 </v>
   <v>       0.16666667       0.33333333       0.00000000 </v>
   <v>       0.26666667       0.53333333       0.80000000 </v>
   <v>       0.20000000       0.40000000       0.60000000 </v>
   <v>       0.06666667       0.13333333       0.20000000 </v>
   <v>       0.76666667       0.53333333       0.80000000 </v>
   <v>       0.70000000       0.40000000       0.60000000 </v>
   <v>       0.60000000       0.20000000       0.80000000 </v>
   <v>       0.53333333       0.06666667       0.60000000 </v>
   <v>       0.33333333       0.66666667       0.00000000 </v>
   <v>       0.23333333       0.46666667       0.20000000 </v>
  </varray>
 </structure>
 <calculation>
  <scstep>
   <time name="dav">   41.89   41.98</time>
   <time name="total">   42.02   42.12</time>
   <energy>
    <i name="alphaZ">   1104.47950323 </i>
    <i name="ewald"> -10162.04038315 </i>
    <i name="hartreedc">   -104.21870225 </i>
    <i name="XCdc">  -1018.50486177 </i>
    <i name="pawpsdc"> 489900.87556172 </i>
    <i name="pawaedc">-488583.25433505 </i>
    <i name="eentropy">     -0.00081538 </i>
    <i name="bandstr">  -6533.65681566 </i>
    <i name="atom">  11451.57642151 </i>
    <i name="e_fr_energy">  -3944.74442680 </i>
    <i name="e_wo_entrp">  -3944.74361142 </i>
    <i name="e_0_energy">  -3944.74415501 </i>
   </energy>
  </scstep>
  <scstep>
   <time name="dav">   48.65   48.72</time>
   <time name="total">   48.65   48.73</time>
   <energy>
    <i name="e_fr_energy">  -9442.98260434 </i>
    <i name="e_wo_entrp">  -9442.98075524 </i>
    <i name="e_0_energy">  -9442.98198797 </i>
   </energy>
  </scstep>
  <scstep>
   <time name="dav">   55.99   56.06</time>
   <time name="total">   55.99   56.07</time>
   <energy>
    <i name="e_fr_energy"> -10529.60036967 </i>
    <i name="e_wo_entrp"> -10529.59997020 </i>
    <i name="e_0_energy"> -10529.60023652 </i>
   </energy>
  </scstep>
  <scstep>
   <time name="dav">   55.88   55.96</time>
   <time name="total">   55.89   55.97</time>
   <energy>
    <i name="e_fr_energy"> -10913.88000311 </i>
    <i name="e_wo_entrp"> -10913.87672504 </i>
    <i name="e_0_energy"> -10913.87891042 </i>
   </energy>
  </scstep>
  <scstep>
   <time name="dav">   55.93   56.02</time>
   <time name="total">   56.48   56.56</time>
   <energy>
    <i name="e_fr_energy"> -11116.37660840 </i>
    <i name="e_wo_entrp"> -11116.37748329 </i>
    <i name="e_0_energy"> -11116.37690003 </i>
   </energy>
  </scstep>
  <scstep>
   <time name="dav">   48.91   48.97</time>
   <time name="total">   49.64   49.71</time>
   <energy>
    <i name="e_fr_energy">  -1050.93218780 </i>
    <i name="e_wo_entrp">  -1050.92908673 </i>
    <i name="e_0_energy">  -1050.93115411 </i>
   </energy>
  </scstep>
  <scstep>
   <time name="dav">   50.57   50.64</time>
   <time name="total">   51.29   51.35</time>
   <energy>
    <i name="e_fr_energy">   -870.35837998 </i>
    <i name="e_wo_entrp">   -870.35548691 </i>
    <i name="e_0_energy">   -870.35741562 </i>
   </energy>
  </scstep>
  <scstep>
   <time name="dav">   50.84   50.91</time>
   <time name="total">   51.57   51.65</time>
   <energy>
    <i name="e_fr_energy">   -663.85294475 </i>
    <i name="e_wo_entrp">   -663.85560841 </i>
    <i name="e_0_energy">   -663.85383264 </i>
   </energy>
  </scstep>
  <scstep>
   <time name="dav">   48.24   48.32</time>
   <time name="total">   48.90   48.98</time>
   <energy>
    <i name="e_fr_energy">   -544.08239632 </i>
    <i name="e_wo_entrp">   -544.07381124 </i>
    <i name="e_0_energy">   -544.07953463 </i>
   </energy>
  </scstep>
  <scstep>
   <time name="dav">   53.14   53.21</time>
   <time name="total">   53.80   53.89</time>
   <energy>
    <i name="e_fr_energy">   -517.23097179 </i>
    <i name="e_wo_entrp">   -517.23183083 </i>
    <i name="e_0_energy">   -517.23125814 </i>
   </energy>
  </scstep>
  <scstep>
   <time name="dav">   52.53   52.60</time>
   <time name="total">   53.18   53.26</time>
   <energy>
    <i name="e_fr_energy">   -460.34585128 </i>
    <i name="e_wo_entrp">   -460.34066298 </i>
    <i name="e_0_energy">   -460.34412184 </i>
   </energy>
  </scstep>
  <scstep>
   <time name="dav">   50.03   50.10</time>
   <time name="total">   50.68   50.77</time>
   <energy>
    <i name="e_fr_energy">   -533.57544266 </i>
    <i name="e_wo_entrp">   -533.57234368 </i>
    <i name="e_0_energy">   -533.57440966 </i>
   </energy>
  </scstep>
  <scstep>
   <time name="dav">   48.14   48.21</time>
   <time name="total">   48.80   48.86</time>
   <energy>
    <i name="e_fr_energy">   -637.00659799 </i>
    <i name="e_wo_entrp">   -637.01059074 </i>
    <i name="e_0_energy">   -637.00792891 </i>
   </energy>
  </scstep>
  <scstep>
   <time name="dav">   51.34   51.50</time>
   <time name="total">   51.99   52.19</time>
   <energy>
    <i name="e_fr_energy">   -545.25507660 </i>
    <i name="e_wo_entrp">   -545.25098236 </i>
    <i name="e_0_energy">   -545.25371185 </i>
   </energy>
  </scstep>
  <scstep>
   <time name="dav">   53.44   53.52</time>
   <time name="total">   54.10   54.19</time>
   <energy>
    <i name="e_fr_energy">   -415.42498811 </i>
    <i name="e_wo_entrp">   -415.41577440 </i>
    <i name="e_0_energy">   -415.42191687 </i>
   </energy>
  </scstep>
  <scstep>
   <time name="dav">   49.51   49.59</time>
   <time name="total">   50.20   50.29</time>
   <energy>
    <i name="e_fr_energy">   -350.93030334 </i>
    <i name="e_wo_entrp">   -350.93882759 </i>
    <i name="e_0_energy">   -350.93314476 </i>
   </energy>
  </scstep>
  <scstep>
   <time name="dav">   52.01   52.09</time>
   <time name="total">   52.69   52.78</time>
   <energy>
    <i name="e_fr_energy">   -342.47143066 </i>
    <i name="e_wo_entrp">   -342.46635018 </i>
    <i name="e_0_energy">   -342.46973717 </i>
   </energy>
  </scstep>
  <scstep>
   <time name="dav">   51.75   51.82</time>
   <time name="total">   52.44   52.52</time>
   <energy>
    <i name="e_fr_energy">   -385.32398484 </i>
    <i name="e_wo_entrp">   -385.32743290 </i>
    <i name="e_0_energy">   -385.32513419 </i>
   </energy>
  </scstep>
  <scstep>
   <time name="dav">   53.69   53.76</time>
   <time name="total">   54.36   54.43</time>
   <energy>
    <i name="e_fr_energy">   -347.85334105 </i>
    <i name="e_wo_entrp">   -347.84684033 </i>
    <i name="e_0_energy">   -347.85117414 </i>
   </energy>
  </scstep>
  <scstep>
   <time name="dav">   51.30   51.37</time>
   <time name="total">   51.98   52.06</time>
   <energy>
    <i name="e_fr_energy">   -326.93690520 </i>
    <i name="e_wo_entrp">   -326.91225460 </i>
    <i name="e_0_energy">   -326.92868834 </i>
   </energy>
  </scstep>
  <scstep>
   <time name="dav">   50.54   50.61</time>
   <time name="total">   51.21   51.28</time>
   <energy>
    <i name="e_fr_energy">   -315.96017447 </i>
    <i name="e_wo_entrp">   -315.95059799 </i>
    <i name="e_0_energy">   -315.95698231 </i>
   </energy>
  </scstep>
  <scstep>
   <time name="dav">   49.88   49.94</time>
   <time name="total">   50.56   50.63</time>
   <energy>
    <i name="e_fr_energy">   -308.84248395 </i>
    <i name="e_wo_entrp">   -308.82223386 </i>
    <i name="e_0_energy">   -308.83573392 </i>
   </energy>
  </scstep>
  <scstep>
   <time name="dav">   49.60   49.66</time>
   <time name="total">   50.27   50.34</time>
   <energy>
    <i name="e_fr_energy">   -307.94822462 </i>
    <i name="e_wo_entrp">   -307.95026701 </i>
    <i name="e_0_energy">   -307.94890541 </i>
   </energy>
  </scstep>
  <scstep>
   <time name="dav">   48.46   48.53</time>
   <time name="total">   49.15   49.22</time>
   <energy>
    <i name="e_fr_energy">   -307.33274200 </i>
    <i name="e_wo_entrp">   -307.32863209 </i>
    <i name="e_0_energy">   -307.33137203 </i>
   </energy>
  </scstep>
  <scstep>
   <time name="dav">   50.94   51.00</time>
   <time name="total">   51.61   51.68</time>
   <energy>
    <i name="e_fr_energy">   -307.43360210 </i>
    <i name="e_wo_entrp">   -307.42245814 </i>
    <i name="e_0_energy">   -307.42988744 </i>
   </energy>
  </scstep>
  <scstep>
   <time name="dav">   48.41   48.49</time>
   <time name="total">   49.10   49.19</time>
   <energy>
    <i name="e_fr_energy">   -307.23492938 </i>
    <i name="e_wo_entrp">   -307.23461074 </i>
    <i name="e_0_energy">   -307.23482316 </i>
   </energy>
  </scstep>
  <scstep>
   <time name="dav">   49.41   49.49</time>
   <time name="total">   50.08   50.17</time>
   <energy>
    <i name="e_fr_energy">   -306.23123945 </i>
    <i name="e_wo_entrp">   -306.22113011 </i>
    <i name="e_0_energy">   -306.22786967 </i>
   </energy>
  </scstep>
  <scstep>
   <time name="dav">   48.75   48.82</time>
   <time name="total">   49.44   49.52</time>
   <energy>
    <i name="e_fr_energy">   -305.91278336 </i>
    <i name="e_wo_entrp">   -305.89524280 </i>
    <i name="e_0_energy">   -305.90693650 </i>
   </energy>
  </scstep>
  <scstep>
   <time name="dav">   49.67   49.75</time>
   <time name="total">   50.34   50.42</time>
   <energy>
    <i name="e_fr_energy">   -305.46279893 </i>
    <i name="e_wo_entrp">   -305.45182420 </i>
    <i name="e_0_energy">   -305.45914068 </i>
   </energy>
  </scstep>
  <scstep>
   <time name="dav">   49.42   49.50</time>
   <time name="total">   50.26   51.08</time>
   <energy>
    <i name="e_fr_energy">   -305.36296301 </i>
    <i name="e_wo_entrp">   -305.34536410 </i>
    <i name="e_0_energy">   -305.35709670 </i>
   </energy>
  </scstep>
  <scstep>
   <time name="dav">   48.71   48.78</time>
   <time name="total">   49.38   49.45</time>
   <energy>
    <i name="e_fr_energy">   -305.43725710 </i>
    <i name="e_wo_entrp">   -305.41899898 </i>
    <i name="e_0_energy">   -305.43117106 </i>
   </energy>
  </scstep>
  <scstep>
   <time name="dav">   45.61   45.67</time>
   <time name="total">   46.28   46.36</time>
   <energy>
    <i name="e_fr_energy">   -305.26714661 </i>
    <i name="e_wo_entrp">   -305.25217163 </i>
    <i name="e_0_energy">   -305.26215495 </i>
   </energy>
  </scstep>
  <scstep>
   <time name="dav">   47.82   47.89</time>
   <time name="total">   48.49   48.56</time>
   <energy>
    <i name="e_fr_energy">   -305.23982684 </i>
    <i name="e_wo_entrp">   -305.22265980 </i>
    <i name="e_0_energy">   -305.23410449 </i>
   </energy>
  </scstep>
  <scstep>
   <time name="dav">   46.29   46.36</time>
   <time name="total">   46.97   47.05</time>
   <energy>
    <i name="e_fr_energy">   -305.21761279 </i>
    <i name="e_wo_entrp">   -305.20172696 </i>
    <i name="e_0_energy">   -305.21231751 </i>
   </energy>
  </scstep>
  <scstep>
   <time name="dav">   49.32   49.40</time>
   <time name="total">   50.00   50.07</time>
   <energy>
    <i name="e_fr_energy">   -305.20454149 </i>
    <i name="e_wo_entrp">   -305.18909050 </i>
    <i name="e_0_energy">   -305.19939116 </i>
   </energy>
  </scstep>
  <scstep>
   <time name="dav">   47.04   47.10</time>
   <time name="total">   47.73   47.80</time>
   <energy>
    <i name="e_fr_energy">   -305.22585503 </i>
    <i name="e_wo_entrp">   -305.21186482 </i>
    <i name="e_0_energy">   -305.22119162 </i>
   </energy>
  </scstep>
  <scstep>
   <time name="dav">   51.68   51.75</time>
   <time name="total">   52.33   52.43</time>
   <energy>
    <i name="e_fr_energy">   -305.19552201 </i>
    <i name="e_wo_entrp">   -305.18034027 </i>
    <i name="e_0_energy">   -305.19046143 </i>
   </energy>
  </scstep>
  <scstep>
   <time name="dav">   47.66   47.73</time>
   <time name="total">   48.35   48.42</time>
   <energy>
    <i name="e_fr_energy">   -305.17892424 </i>
    <i name="e_wo_entrp">   -305.16335467 </i>
    <i name="e_0_energy">   -305.17373438 </i>
   </energy>
  </scstep>
  <scstep>
   <time name="dav">   50.08   50.14</time>
   <time name="total">   50.75   50.82</time>
   <energy>
    <i name="e_fr_energy">   -305.16965983 </i>
    <i name="e_wo_entrp">   -305.15322661 </i>
    <i name="e_0_energy">   -305.16418209 </i>
   </energy>
  </scstep>
  <scstep>
   <time name="dav">   46.62   46.68</time>
   <time name="total">   47.31   47.38</time>
   <energy>
    <i name="e_fr_energy">   -305.16692417 </i>
    <i name="e_wo_entrp">   -305.15049809 </i>
    <i name="e_0_energy">   -305.16144881 </i>
   </energy>
  </scstep>
  <scstep>
   <time name="dav">   47.59   47.65</time>
   <time name="total">   48.26   48.32</time>
   <energy>
    <i name="e_fr_energy">   -305.16689523 </i>
    <i name="e_wo_entrp">   -305.15054008 </i>
    <i name="e_0_energy">   -305.16144352 </i>
   </energy>
  </scstep>
  <scstep>
   <time name="dav">   44.57   44.63</time>
   <time name="total">   45.26   45.33</time>
   <energy>
    <i name="e_fr_energy">   -305.16435082 </i>
    <i name="e_wo_entrp">   -305.14777523 </i>
    <i name="e_0_energy">   -305.15882562 </i>
   </energy>
  </scstep>
  <scstep>
   <time name="dav">   44.66   44.72</time>
   <time name="total">   45.33   45.39</time>
   <energy>
    <i name="e_fr_energy">   -305.16297481 </i>
    <i name="e_wo_entrp">   -305.14617838 </i>
    <i name="e_0_energy">   -305.15737600 </i>
   </energy>
  </scstep>
  <scstep>
   <time name="dav">   33.53   33.57</time>
   <time name="total">   34.20   34.25</time>
   <energy>
    <i name="e_fr_energy">   -305.16287275 </i>
    <i name="e_wo_entrp">   -305.14605397 </i>
    <i name="e_0_energy">   -305.15726649 </i>
   </energy>
  </scstep>
  <scstep>
   <time name="dav">   29.60   29.64</time>
   <time name="total">   30.27   30.31</time>
   <energy>
    <i name="e_fr_energy">   -305.16275047 </i>
    <i name="e_wo_entrp">   -305.14593331 </i>
    <i name="e_0_energy">   -305.15714475 </i>
   </energy>
  </scstep>
  <scstep>
   <time name="dav">   25.94   25.98</time>
   <time name="total">   26.02   26.06</time>
   <energy>
    <i name="alphaZ">   1104.47950323 </i>
    <i name="ewald"> -10162.04038315 </i>
    <i name="hartreedc">  -2667.20015661 </i>
    <i name="XCdc">   -945.52039968 </i>
    <i name="pawpsdc">  17317.94851767 </i>
    <i name="pawaedc"> -15831.11154367 </i>
    <i name="eentropy">     -0.01682674 </i>
    <i name="bandstr">   -573.27787857 </i>
    <i name="atom">  11451.57642151 </i>
    <i name="e_fr_energy">   -305.16274601 </i>
    <i name="e_wo_entrp">   -305.14591928 </i>
    <i name="e_0_energy">   -305.15713710 </i>
   </energy>
  </scstep>
  <structure>
   <crystal>
    <varray name="basis" >
     <v>      -3.16000000      -3.16000000      -3.16000000 </v>
     <v>       1.58000000       1.58000000      -7.90000000 </v>
     <v>       7.90000000      -7.90000000      -1.58000000 </v>
    </varray>
    <i name="volume">    473.31744000 </i>
    <varray name="rec_basis" >
     <v>      -0.13713080      -0.12658228      -0.05274262 </v>
     <v>       0.04219409       0.06329114      -0.10548523 </v>
     <v>       0.06329114      -0.06329114       0.00000000 </v>
    </varray>
   </crystal>
   <varray name="positions" >
    <v>       0.96666667       0.93333333       0.40000000 </v>
    <v>       0.63333333       0.26666667       0.40000000 </v>
    <v>       0.00000000       0.00000000       0.00000000 </v>
    <v>       0.10000000       0.20000000       0.80000000 </v>
    <v>       0.03333333       0.06666667       0.60000000 </v>
    <v>       0.90000000       0.80000000       0.20000000 </v>
    <v>       0.80000000       0.60000000       0.40000000 </v>
    <v>       0.73333333       0.46666667       0.20000000 </v>
    <v>       0.66666667       0.33333333       0.00000000 </v>
    <v>       0.36666667       0.73333333       0.60000000 </v>
    <v>       0.13333333       0.26666667       0.40000000 </v>
    <v>       0.83333333       0.66666667       0.00000000 </v>
    <v>       0.93333333       0.86666667       0.80000000 </v>
    <v>       0.56666667       0.13333333       0.20000000 </v>
    <v>       0.40000000       0.80000000       0.20000000 </v>
    <v>       0.43333333       0.86666667       0.80000000 </v>
    <v>       0.30000000       0.60000000       0.40000000 </v>
    <v>       0.86666667       0.73333333       0.60000000 </v>
    <v>       0.46666667       0.93333333       0.40000000 </v>
    <v>       0.16666667       0.33333333       0.00000000 </v>
    <v>       0.26666667       0.53333333       0.80000000 </v>
    <v>       0.20000000       0.40000000       0.60000000 </v>
    <v>       0.06666667       0.13333333       0.20000000 </v>
    <v>       0.76666667       0.53333333       0.80000000 </v>
    <v>       0.70000000       0.40000000       0.60000000 </v>
    <v>       0.60000000       0.20000000       0.80000000 </v>
    <v>       0.53333333       0.06666667       0.60000000 </v>
    <v>       0.33333333       0.66666667       0.00000000 </v>
    <v>       0.23333333       0.46666667       0.20000000 </v>
   </varray>
  </structure>
  <varray name="forces" >
   <v>      -0.05366549       0.58319546       0.22549006 </v>
   <v>       0.42942893      -0.23175494      -0.02047421 </v>
   <v>       0.20056763      -0.11037843       0.20209198 </v>
   <v>       0.02393420       0.79786960      -0.49274492 </v>
   <v>      -0.03765772       0.02596820      -0.30625926 </v>
   <v>      -0.11962943      -0.53823216       0.12694648 </v>
   <v>      -0.45512479      -0.21228176       0.52040287 </v>
   <v>      -0.24278755       0.34117515       0.08785399 </v>
   <v>       0.07082523       0.41334369      -0.77606864 </v>
   <v>      -0.26609307      -0.43965991       0.30151188 </v>
   <v>      -0.02319498       0.13418240      -0.61957252 </v>
   <v>       0.62177631      -0.02027685      -0.31979108 </v>
   <v>       0.12588700       0.32870770      -0.20769040 </v>
   <v>      -0.91365173       0.94500922       0.38214597 </v>
   <v>      -1.35957349       0.58271991       0.18605038 </v>
   <v>      -0.25109512      -0.49740829       0.26283444 </v>
   <v>       0.48865077      -0.52421228      -0.15834046 </v>
   <v>       0.17936151       0.22125524       0.45418128 </v>
   <v>       0.46250398      -0.47705438       0.11912197 </v>
   <v>      -0.30026207      -0.51496750       0.17851944 </v>
   <v>      -0.23013786      -0.18767309      -0.28232038 </v>
   <v>      -0.20433474      -0.17130301       0.56104168 </v>
   <v>       1.03899490      -0.02051640      -0.79239766 </v>
   <v>       0.11398517      -0.39892167       0.63625794 </v>
   <v>       0.63308329       0.16066837      -0.35727689 </v>
   <v>      -0.18108611       0.19082305      -0.31288152 </v>
   <v>       0.30572680      -0.50449325      -0.46595758 </v>
   <v>      -0.14200398      -0.25729939       1.02760234 </v>
   <v>       0.08557243       0.38151533      -0.16027720 </v>
  </varray>
  <varray name="stress" >
   <v>     -28.17698124      -2.83484249       2.13382526 </v>
   <v>      -2.83484241     -32.89470438      -3.47449403 </v>
   <v>       2.13382517      -3.47449401     -27.90536628 </v>
  </varray>
  <energy>
   <i name="e_fr_energy">   -305.16274601 </i>
   <i name="e_wo_entrp">   -305.15713710 </i>
   <i name="e_0_energy">     -0.01682674 </i>
  </energy>
  <time name="totalsc"> 2274.65 2279.04</time>
 </calculation>
 <calculation>
  <scstep>
   <time name="dav">   37.14   37.20</time>
   <time name="total">   37.81   37.87</time>
   <energy>
    <i name="alphaZ">   1154.22766715 </i>
    <i name="ewald"> -10338.19173364 </i>
    <i name="hartreedc">  -2683.06181898 </i>
    <i name="XCdc">   -940.54024831 </i>
    <i name="pawpsdc">  17315.87393231 </i>
    <i name="pawaedc"> -15829.03126639 </i>
    <i name="eentropy">     -0.01697314 </i>
    <i name="bandstr">   -437.66286205 </i>
    <i name="atom">  11451.57642151 </i>
    <i name="e_fr_energy">   -306.82688154 </i>
    <i name="e_wo_entrp">   -306.80990840 </i>
    <i name="e_0_energy">   -306.82122383 </i>
   </energy>
  </scstep>
  <scstep>
   <time name="dav">   51.70   51.86</time>
   <time name="total">   52.34   52.54</time>
   <energy>
    <i name="e_fr_energy">   -307.77116085 </i>
    <i name="e_wo_entrp">   -307.76689265 </i>
    <i name="e_0_energy">   -307.76973812 </i>
   </energy>
  </scstep>
  <scstep>
   <time name="dav">   51.24   51.32</time>
   <time name="total">   51.90   51.98</time>
   <energy>
    <i name="e_fr_energy">   -306.92600280 </i>
    <i name="e_wo_entrp">   -306.91291009 </i>
    <i name="e_0_energy">   -306.92163856 </i>
   </energy>
  </scstep>
  <scstep>
   <time name="dav">   49.04   49.11</time>
   <time name="total">   49.71   49.78</time>
   <energy>
    <i name="e_fr_energy">   -306.54322794 </i>
    <i name="e_wo_entrp">   -306.52593862 </i>
    <i name="e_0_energy">   -306.53746483 </i>
   </energy>
  </scstep>
  <scstep>
   <time name="dav">   51.62   51.70</time>
   <time name="total">   52.28   52.36</time>
   <energy>
    <i name="e_fr_energy">   -305.94930420 </i>
    <i name="e_wo_entrp">   -305.93997843 </i>
    <i name="e_0_energy">   -305.94619561 </i>
   </energy>
  </scstep>
  <scstep>
   <time name="dav">   49.30   49.37</time>
   <time name="total">   49.96   50.04</time>
   <energy>
    <i name="e_fr_energy">   -305.81620684 </i>
    <i name="e_wo_entrp">   -305.80134790 </i>
    <i name="e_0_energy">   -305.81125386 </i>
   </energy>
  </scstep>
  <scstep>
   <time name="dav">   52.12   52.19</time>
   <time name="total">   52.77   52.85</time>
   <energy>
    <i name="e_fr_energy">   -305.72942507 </i>
    <i name="e_wo_entrp">   -305.71278806 </i>
    <i name="e_0_energy">   -305.72387940 </i>
   </energy>
  </scstep>
  <scstep>
   <time name="dav">   51.73   51.80</time>
   <time name="total">   52.40   52.48</time>
   <energy>
    <i name="e_fr_energy">   -305.70588780 </i>
    <i name="e_wo_entrp">   -305.68804726 </i>
    <i name="e_0_energy">   -305.69994096 </i>
   </energy>
  </scstep>
  <scstep>
   <time name="dav">   50.91   50.99</time>
   <time name="total">   51.57   51.65</time>
   <energy>
    <i name="e_fr_energy">   -305.68961182 </i>
    <i name="e_wo_entrp">   -305.67302497 </i>
    <i name="e_0_energy">   -305.68408287 </i>
   </energy>
  </scstep>
  <scstep>
   <time name="dav">   48.96   49.03</time>
   <time name="total">   49.63   49.71</time>
   <energy>
    <i name="e_fr_energy">   -305.68591564 </i>
    <i name="e_wo_entrp">   -305.66794426 </i>
    <i name="e_0_energy">   -305.67992518 </i>
   </energy>
  </scstep>
  <scstep>
   <time name="dav">   49.01   49.09</time>
   <time name="total">   49.67   49.74</time>
   <energy>
    <i name="e_fr_energy">   -305.69136626 </i>
    <i name="e_wo_entrp">   -305.67344072 </i>
    <i name="e_0_energy">   -305.68539108 </i>
   </energy>
  </scstep>
  <scstep>
   <time name="dav">   49.83   49.91</time>
   <time name="total">   50.50   50.62</time>
   <energy>
    <i name="e_fr_energy">   -305.69308432 </i>
    <i name="e_wo_entrp">   -305.67577423 </i>
    <i name="e_0_energy">   -305.68731429 </i>
   </energy>
  </scstep>
  <scstep>
   <time name="dav">   53.15   53.24</time>
   <time name="total">   53.81   53.89</time>
   <energy>
    <i name="e_fr_energy">   -305.69455326 </i>
    <i name="e_wo_entrp">   -305.67633988 </i>
    <i name="e_0_energy">   -305.68848213 </i>
   </energy>
  </scstep>
  <scstep>
   <time name="dav">   48.30   48.38</time>
   <time name="total">   48.97   49.07</time>
   <energy>
    <i name="e_fr_energy">   -305.69302641 </i>
    <i name="e_wo_entrp">   -305.67517250 </i>
    <i name="e_0_energy">   -305.68707511 </i>
   </energy>
  </scstep>
  <scstep>
   <time name="dav">   51.84   51.92</time>
   <time name="total">   52.50   52.59</time>
   <energy>
    <i name="e_fr_energy">   -305.69233395 </i>
    <i name="e_wo_entrp">   -305.67448238 </i>
    <i name="e_0_energy">   -305.68638343 </i>
   </energy>
  </scstep>
  <scstep>
   <time name="dav">   45.35   45.43</time>
   <time name="total">   46.04   46.13</time>
   <energy>
    <i name="e_fr_energy">   -305.69214743 </i>
    <i name="e_wo_entrp">   -305.67430562 </i>
    <i name="e_0_energy">   -305.68620016 </i>
   </energy>
  </scstep>
  <scstep>
   <time name="dav">   35.12   35.16</time>
   <time name="total">   35.19   35.23</time>
   <energy>
    <i name="alphaZ">   1154.22766715 </i>
    <i name="ewald"> -10338.19173364 </i>
    <i name="hartreedc">  -2611.46170669 </i>
    <i name="XCdc">   -942.60451272 </i>
    <i name="pawpsdc">  18330.80025892 </i>
    <i name="pawaedc"> -16845.36642356 </i>
    <i name="eentropy">     -0.01782001 </i>
    <i name="bandstr">   -504.65429517 </i>
    <i name="atom">  11451.57642151 </i>
    <i name="e_fr_energy">   -305.69214420 </i>
    <i name="e_wo_entrp">   -305.67432419 </i>
    <i name="e_0_energy">   -305.68620420 </i>
   </energy>
  </scstep>
  <structure>
   <crystal>
    <varray name="basis" >
     <v>      -3.11515342      -3.09911742      -3.11458188 </v>
     <v>       1.54763543       1.56574603      -7.79270073 </v>
     <v>       7.79995436      -7.78059719      -1.53655811 </v>
    </varray>
    <i name="volume">    452.91706816 </i>
    <varray name="rec_basis" >
     <v>      -0.13918161      -0.12895226      -0.05355125 </v>
     <v>       0.04299095       0.06420648      -0.10688652 </v>
     <v>       0.06408930      -0.06424067      -0.00017936 </v>
    </varray>
   </crystal>
   <varray name="positions" >
    <v>       0.96288657       0.93385729       0.39805545 </v>
    <v>       0.63195977       0.26693736       0.40201881 </v>
    <v>      -0.00116703      -0.00095718       0.00094942 </v>
    <v>       0.09622310       0.20499240       0.79763692 </v>
    <v>       0.03420314       0.06822782       0.59980573 </v>
    <v>       0.90375521       0.79746707       0.20127813 </v>
    <v>       0.80298310       0.59577713       0.39925852 </v>
    <v>       0.73263252       0.46676710       0.19821697 </v>
    <v>       0.66564863       0.33868890      -0.00104582 </v>
    <v>       0.37034470       0.72991489       0.60052996 </v>
    <v>       0.13424384       0.27018209       0.39951947 </v>
    <v>       0.83015745       0.66949780       0.00196040 </v>
    <v>       0.93102167       0.86898349       0.79938072 </v>
    <v>       0.56596778       0.13241427       0.19432489 </v>
    <v>       0.40496246       0.79806496       0.19406953 </v>
    <v>       0.43736320       0.86329926       0.80075208 </v>
    <v>       0.30037138       0.60019986       0.40309261 </v>
    <v>       0.86297332       0.73206272       0.59987208 </v>
    <v>       0.46621706       0.93221198       0.40286878 </v>
    <v>       0.17134357       0.33024130       0.00065557 </v>
    <v>       0.27005356       0.53372854       0.79987034 </v>
    <v>       0.20097034       0.39620594       0.59989914 </v>
    <v>       0.06193464       0.13941804       0.20323504 </v>
    <v>       0.76672975       0.52910947       0.80156608 </v>
    <v>       0.69573973       0.40359739       0.60144244 </v>
    <v>       0.60082880       0.20180625       0.79886444 </v>
    <v>       0.53557715       0.06811981       0.60247387 </v>
    <v>       0.33322933       0.66036264       0.00035204 </v>
    <v>       0.23084525       0.46882138       0.19909639 </v>
   </varray>
  </structure>
  <varray name="forces" >
   <v>       0.10395325       0.25391580       0.06600244 </v>
   <v>       0.09865524      -0.07463519       0.08511764 </v>
   <v>       0.08621017      -0.08572189      -0.07045478 </v>
   <v>       0.00118990       0.34002794      -0.31092001 </v>
   <v>      -0.06271034       0.05318566      -0.14718862 </v>
   <v>      -0.21228090      -0.27959986       0.09448610 </v>
   <v>      -0.10975231      -0.11692345       0.20115963 </v>
   <v>      -0.06076382       0.09604221       0.15022330 </v>
   <v>      -0.06728278       0.44265257      -0.40196796 </v>
   <v>      -0.11029157      -0.38124870       0.22221635 </v>
   <v>       0.03788140       0.01140671      -0.25459500 </v>
   <v>       0.36007290       0.17760675      -0.34311154 </v>
   <v>       0.09588187       0.22929109      -0.13043710 </v>
   <v>      -0.58527810       0.81992744       0.45349383 </v>
   <v>      -0.72463836       0.45918693      -0.16401446 </v>
   <v>       0.15502619      -0.38052439       0.09632086 </v>
   <v>       0.14865809      -0.24430095      -0.18561995 </v>
   <v>       0.12562051       0.11583548       0.30132311 </v>
   <v>       0.18577983      -0.22574033       0.09729449 </v>
   <v>      -0.38618257      -0.51144978       0.15189499 </v>
   <v>      -0.19034343      -0.16836765      -0.08749532 </v>
   <v>      -0.05494277      -0.18172664       0.35587257 </v>
   <v>       0.55945124       0.05947349      -0.49732481 </v>
   <v>       0.05362615      -0.27483698       0.49276698 </v>
   <v>       0.60987031       0.00183214      -0.24905538 </v>
   <v>      -0.05087396       0.20293455      -0.26886551 </v>
   <v>       0.23404087      -0.45303236      -0.36725476 </v>
   <v>      -0.19430119      -0.18045681       0.82294342 </v>
   <v>      -0.04627585       0.29524622      -0.11281051 </v>
  </varray>
  <varray name="stress" >
   <v>      54.85747738      -2.30268243       3.07609424 </v>
   <v>      -2.30268246      51.90435959      -0.47825604 </v>
   <v>       3.07609430      -0.47825597      53.81405485 </v>
  </varray>
  <energy>
   <i name="e_fr_energy">   -305.69214420 </i>
   <i name="e_wo_entrp">   -305.68620420 </i>
   <i name="e_0_energy">     -0.01782001 </i>
  </energy>
  <time name="totalsc">  856.71  858.25</time>
 </calculation>
 <calculation>
  <scstep>
   <time name="dav">   38.80   38.86</time>
   <time name="total">   39.47   39.54</time>
   <energy>
    <i name="alphaZ">   1148.47988403 </i>
    <i name="ewald"> -10318.41331135 </i>
    <i name="hartreedc">  -2609.65265119 </i>
    <i name="XCdc">   -943.15925229 </i>
    <i name="pawpsdc">  18330.27416059 </i>
    <i name="pawaedc"> -16844.74271290 </i>
    <i name="eentropy">     -0.01748748 </i>
    <i name="bandstr">   -520.06240901 </i>
    <i name="atom">  11451.57642151 </i>
    <i name="e_fr_energy">   -305.71735810 </i>
    <i name="e_wo_entrp">   -305.69987062 </i>
    <i name="e_0_energy">   -305.71152894 </i>
   </energy>
  </scstep>
  <scstep>
   <time name="dav">   52.04   52.12</time>
   <time name="total">   52.70   52.78</time>
   <energy>
    <i name="e_fr_energy">   -305.72960675 </i>
    <i name="e_wo_entrp">   -305.71012026 </i>
    <i name="e_0_energy">   -305.72311125 </i>
   </energy>
  </scstep>
  <scstep>
   <time name="dav">   51.87   51.94</time>
   <time name="total">   52.53   52.61</time>
   <energy>
    <i name="e_fr_energy">   -305.71885138 </i>
    <i name="e_wo_entrp">   -305.70156381 </i>
    <i name="e_0_energy">   -305.71308886 </i>
   </energy>
  </scstep>
  <scstep>
   <time name="dav">   50.93   51.00</time>
   <time name="total">   51.59   51.66</time>
   <energy>
    <i name="e_fr_energy">   -305.71428762 </i>
    <i name="e_wo_entrp">   -305.69753024 </i>
    <i name="e_0_energy">   -305.70870183 </i>
   </energy>
  </scstep>
  <scstep>
   <time name="dav">   50.00   50.07</time>
   <time name="total">   50.66   50.75</time>
   <energy>
    <i name="e_fr_energy">   -305.70680207 </i>
    <i name="e_wo_entrp">   -305.68854206 </i>
    <i name="e_0_energy">   -305.70071540 </i>
   </energy>
  </scstep>
  <scstep>
   <time name="dav">   49.74   49.82</time>
   <time name="total">   50.40   50.48</time>
   <energy>
    <i name="e_fr_energy">   -305.70391517 </i>
    <i name="e_wo_entrp">   -305.68615469 </i>
    <i name="e_0_energy">   -305.69799501 </i>
   </energy>
  </scstep>
  <scstep>
   <time name="dav">   54.13   54.21</time>
   <time name="total">   54.79   54.88</time>
   <energy>
    <i name="e_fr_energy">   -305.70249551 </i>
    <i name="e_wo_entrp">   -305.68469740 </i>
    <i name="e_0_energy">   -305.69656280 </i>
   </energy>
  </scstep>
  <scstep>
   <time name="dav">   52.38   52.45</time>
   <time name="total">   53.03   53.11</time>
   <energy>
    <i name="e_fr_energy">   -305.70200744 </i>
    <i name="e_wo_entrp">   -305.68427546 </i>
    <i name="e_0_energy">   -305.69609678 </i>
   </energy>
  </scstep>
  <scstep>
   <time name="dav">   46.81   46.88</time>
   <time name="total">   47.49   47.57</time>
   <energy>
    <i name="e_fr_energy">   -305.70189980 </i>
    <i name="e_wo_entrp">   -305.68391940 </i>
    <i name="e_0_energy">   -305.69590633 </i>
   </energy>
  </scstep>
  <scstep>
   <time name="dav">   41.22   41.28</time>
   <time name="total">   41.89   41.95</time>
   <energy>
    <i name="e_fr_energy">   -305.70177629 </i>
    <i name="e_wo_entrp">   -305.68397128 </i>
    <i name="e_0_energy">   -305.69584129 </i>
   </energy>
  </scstep>
  <scstep>
   <time name="dav">   33.22   33.27</time>
   <time name="total">   33.30   33.36</time>
   <energy>
    <i name="alphaZ">   1148.47988403 </i>
    <i name="ewald"> -10318.41331135 </i>
    <i name="hartreedc">  -2618.08873371 </i>
    <i name="XCdc">   -942.90890291 </i>
    <i name="pawpsdc">  18205.19781649 </i>
    <i name="pawaedc"> -16719.00550509 </i>
    <i name="eentropy">     -0.01781390 </i>
    <i name="bandstr">   -512.52167869 </i>
    <i name="atom">  11451.57642151 </i>
    <i name="e_fr_energy">   -305.70182363 </i>
    <i name="e_wo_entrp">   -305.68400973 </i>
    <i name="e_0_energy">   -305.69588567 </i>
   </energy>
  </scstep>
  <structure>
   <crystal>
    <varray name="basis" >
     <v>      -3.12020122      -3.10597018      -3.11969400 </v>
     <v>       1.55127829       1.56735042      -7.80477801 </v>
     <v>       7.81121520      -7.79403681      -1.54144780 </v>
    </varray>
    <i name="volume">    455.18377663 </i>
    <varray name="rec_basis" >
     <v>      -0.13894765      -0.12868118      -0.05345892 </v>
     <v>       0.04289986       0.06410208      -0.10672692 </v>
     <v>       0.06399846      -0.06413232      -0.00015867 </v>
    </varray>
   </crystal>
   <varray name="positions" >
    <v>       0.96331995       0.93379736       0.39827778 </v>
    <v>       0.63211608       0.26690603       0.40178851 </v>
    <v>      -0.00103398      -0.00084822       0.00084132 </v>
    <v>       0.09665659       0.20442266       0.79790643 </v>
    <v>       0.03410380       0.06804981       0.59982759 </v>
    <v>       0.90332483       0.79775633       0.20113214 </v>
    <v>       0.80264182       0.59625943       0.39934336 </v>
    <v>       0.73271348       0.46675582       0.19842056 </v>
    <v>       0.66576592       0.33807783      -0.00092704 </v>
    <v>       0.36992341       0.73030529       0.60046949 </v>
    <v>       0.13414010       0.26978113       0.39957375 </v>
    <v>       0.83052018       0.66917411       0.00173663 </v>
    <v>       0.93128658       0.86871895       0.79945137 </v>
    <v>       0.56605011       0.13251988       0.19497287 </v>
    <v>       0.40439708       0.79828717       0.19474613 </v>
    <v>       0.43690157       0.86368385       0.80066620 </v>
    <v>       0.30032758       0.60017665       0.40273954 </v>
    <v>       0.86339587       0.73220731       0.59988729 </v>
    <v>       0.46626720       0.93233947       0.40254153 </v>
    <v>       0.17080797       0.33059454       0.00058060 </v>
    <v>       0.26966613       0.53368384       0.79988469 </v>
    <v>       0.20085910       0.39663899       0.59991104 </v>
    <v>       0.06247509       0.13872274       0.20286553 </v>
    <v>       0.76672158       0.52959122       0.80138787 </v>
    <v>       0.69622680       0.40318622       0.60127782 </v>
    <v>       0.60073458       0.20160040       0.79899372 </v>
    <v>       0.53531946       0.06795389       0.60219104 </v>
    <v>       0.33324066       0.66108191       0.00031270 </v>
    <v>       0.23113046       0.46857537       0.19919954 </v>
   </varray>
  </structure>
  <varray name="forces" >
   <v>       0.08080241       0.29340663       0.09224628 </v>
   <v>       0.14660034      -0.09150725       0.07670568 </v>
   <v>       0.10245369      -0.09284301      -0.03420582 </v>
   <v>       0.00254389       0.40201386      -0.33727028 </v>
   <v>      -0.05870500       0.04469550      -0.16981797 </v>
   <v>      -0.20480730      -0.31312337       0.10656647 </v>
   <v>      -0.15499124      -0.12959129       0.24176697 </v>
   <v>      -0.08660562       0.13111081       0.14085421 </v>
   <v>      -0.05002057       0.45141677      -0.45127558 </v>
   <v>      -0.13221372      -0.39021363       0.23219779 </v>
   <v>       0.02799677       0.02898506      -0.30480530 </v>
   <v>       0.39366641       0.15829949      -0.33601238 </v>
   <v>       0.10855292       0.24649813      -0.13848966 </v>
   <v>      -0.62691414       0.84349322       0.45354381 </v>
   <v>      -0.81247036       0.48479862      -0.12857454 </v>
   <v>       0.09867688      -0.39196506       0.11547490 </v>
   <v>       0.19306614      -0.29511731      -0.18955037 </v>
   <v>       0.14601731       0.13523041       0.31931030 </v>
   <v>       0.21733750      -0.25728691       0.09748298 </v>
   <v>      -0.37731462      -0.51381855       0.14667091 </v>
   <v>      -0.20003190      -0.18158514      -0.10860630 </v>
   <v>      -0.07681323      -0.18270250       0.38168360 </v>
   <v>       0.62332706       0.05064667      -0.54016474 </v>
   <v>       0.06542942      -0.28925283       0.51280818 </v>
   <v>       0.62307136       0.01296458      -0.26331986 </v>
   <v>      -0.07212113       0.20379128      -0.26858623 </v>
   <v>       0.24644161      -0.46652034      -0.38027843 </v>
   <v>      -0.19182465      -0.19959708       0.85333956 </v>
   <v>      -0.03115024       0.30777326      -0.11969419 </v>
  </varray>
  <varray name="stress" >
   <v>      45.72916387      -2.64671806       2.75734782 </v>
   <v>      -2.64671815      42.59621983      -1.05743076 </v>
   <v>       2.75734778      -1.05743070      44.87386496 </v>
  </varray>
  <energy>
   <i name="e_fr_energy">   -305.70182363 </i>
   <i name="e_wo_entrp">   -305.69588567 </i>
   <i name="e_0_energy">     -0.01781390 </i>
  </energy>
  <time name="totalsc">  547.40  548.26</time>
 </calculation>
 <calculation>
  <scstep>
   <time name="dav">   33.03   33.09</time>
   <time name="total">   33.70   33.77</time>
   <energy>
    <i name="alphaZ">   1138.33661298 </i>
    <i name="ewald"> -10305.78433630 </i>
    <i name="hartreedc">  -2593.37592522 </i>
    <i name="XCdc">   -943.99918689 </i>
    <i name="pawpsdc">  18205.74528251 </i>
    <i name="pawaedc"> -16719.67607077 </i>
    <i name="eentropy">     -0.01847223 </i>
    <i name="bandstr">   -538.81232054 </i>
    <i name="atom">  11451.57642151 </i>
    <i name="e_fr_energy">   -306.00799495 </i>
    <i name="e_wo_entrp">   -305.98952273 </i>
    <i name="e_0_energy">   -306.00183755 </i>
   </energy>
  </scstep>
  <scstep>
   <time name="dav">   50.50   50.58</time>
   <time name="total">   51.16   51.24</time>
   <energy>
    <i name="e_fr_energy">   -306.68713183 </i>
    <i name="e_wo_entrp">   -306.67403764 </i>
    <i name="e_0_energy">   -306.68276710 </i>
   </energy>
  </scstep>
  <scstep>
   <time name="dav">   52.25   52.34</time>
   <time name="total">   52.90   52.99</time>
   <energy>
    <i name="e_fr_energy">   -306.18874480 </i>
    <i name="e_wo_entrp">   -306.17239450 </i>
    <i name="e_0_energy">   -306.18329470 </i>
   </energy>
  </scstep>
  <scstep>
   <time name="dav">   49.41   49.49</time>
   <time name="total">   50.07   50.16</time>
   <energy>
    <i name="e_fr_energy">   -306.19716085 </i>
    <i name="e_wo_entrp">   -306.17953922 </i>
    <i name="e_0_energy">   -306.19128697 </i>
   </energy>
  </scstep>
  <scstep>
   <time name="dav">   48.72   48.80</time>
   <time name="total">   49.37   49.45</time>
   <energy>
    <i name="e_fr_energy">   -306.14769656 </i>
    <i name="e_wo_entrp">   -306.13161778 </i>
    <i name="e_0_energy">   -306.14233696 </i>
   </energy>
  </scstep>
  <scstep>
   <time name="dav">   51.19   51.25</time>
   <time name="total">   51.85   51.93</time>
   <energy>
    <i name="e_fr_energy">   -306.14003697 </i>
    <i name="e_wo_entrp">   -306.12446508 </i>
    <i name="e_0_energy">   -306.13484634 </i>
   </energy>
  </scstep>
  <scstep>
   <time name="dav">   51.78   51.84</time>
   <time name="total">   52.43   52.50</time>
   <energy>
    <i name="e_fr_energy">   -306.13483745 </i>
    <i name="e_wo_entrp">   -306.11883358 </i>
    <i name="e_0_energy">   -306.12950283 </i>
   </energy>
  </scstep>
  <scstep>
   <time name="dav">   50.80   50.86</time>
   <time name="total">   51.48   51.55</time>
   <energy>
    <i name="e_fr_energy">   -306.13069857 </i>
    <i name="e_wo_entrp">   -306.11370430 </i>
    <i name="e_0_energy">   -306.12503381 </i>
   </energy>
  </scstep>
  <scstep>
   <time name="dav">   49.51   49.58</time>
   <time name="total">   50.18   50.25</time>
   <energy>
    <i name="e_fr_energy">   -306.12806078 </i>
    <i name="e_wo_entrp">   -306.11200485 </i>
    <i name="e_0_energy">   -306.12270880 </i>
   </energy>
  </scstep>
  <scstep>
   <time name="dav">   45.20   45.26</time>
   <time name="total">   45.88   45.95</time>
   <energy>
    <i name="e_fr_energy">   -306.12742522 </i>
    <i name="e_wo_entrp">   -306.11116658 </i>
    <i name="e_0_energy">   -306.12200568 </i>
   </energy>
  </scstep>
  <scstep>
   <time name="dav">   47.93   48.00</time>
   <time name="total">   48.59   48.67</time>
   <energy>
    <i name="e_fr_energy">   -306.12727986 </i>
    <i name="e_wo_entrp">   -306.11077048 </i>
    <i name="e_0_energy">   -306.12177673 </i>
   </energy>
  </scstep>
  <scstep>
   <time name="dav">   47.92   47.98</time>
   <time name="total">   48.59   48.66</time>
   <energy>
    <i name="e_fr_energy">   -306.12753141 </i>
    <i name="e_wo_entrp">   -306.11131534 </i>
[...]
       <r>    4.7399    1.0000 </r>
       <r>    4.7836    1.0000 </r>
       <r>    4.8303    1.0000 </r>
       <r>    4.9049    1.0000 </r>
       <r>    4.9790    1.0000 </r>
       <r>    4.9950    1.0000 </r>
       <r>    5.0912    1.0000 </r>
       <r>    5.1094    1.0000 </r>
       <r>    5.1820    1.0000 </r>
       <r>    5.2216    1.0000 </r>
       <r>    5.2974    1.0000 </r>
       <r>    5.3632    1.0000 </r>
       <r>    5.4339    1.0000 </r>
       <r>    5.4433    1.0000 </r>
       <r>    5.5062    1.0000 </r>
       <r>    5.5690    1.0000 </r>
       <r>    5.6084    1.0000 </r>
       <r>    5.6752    1.0000 </r>
       <r>    5.7795    1.0000 </r>
       <r>    5.8352    1.0001 </r>
       <r>    5.8699    1.0004 </r>
       <r>    5.9025    1.0008 </r>
       <r>    5.9333    1.0015 </r>
       <r>    5.9841    1.0043 </r>
       <r>    6.0543    1.0133 </r>
       <r>    6.1307    1.0299 </r>
       <r>    6.1718    1.0354 </r>
       <r>    6.1957    1.0336 </r>
       <r>    6.2262    1.0217 </r>
       <r>    6.2493    1.0026 </r>
       <r>    6.3198    0.8712 </r>
       <r>    6.3805    0.6644 </r>
       <r>    6.4160    0.5175 </r>
       <r>    6.5276    0.1101 </r>
       <r>    6.5682    0.0269 </r>
       <r>    6.6445   -0.0336 </r>
       <r>    6.6922   -0.0331 </r>
       <r>    6.8056   -0.0100 </r>
       <r>    6.8554   -0.0043 </r>
       <r>    6.9649   -0.0004 </r>
       <r>    7.0192   -0.0001 </r>
       <r>    7.1401   -0.0000 </r>
       <r>    7.2113   -0.0000 </r>
       <r>    7.3237   -0.0000 </r>
       <r>    7.3807   -0.0000 </r>
       <r>    7.7148   -0.0000 </r>
       <r>    7.7591   -0.0000 </r>
       <r>    7.8570   -0.0000 </r>
       <r>    7.9282   -0.0000 </r>
       <r>    8.0299   -0.0000 </r>
       <r>    8.1605   -0.0000 </r>
       <r>    8.2854   -0.0000 </r>
       <r>    8.3462   -0.0000 </r>
       <r>    8.4034   -0.0000 </r>
       <r>    8.4489   -0.0000 </r>
       <r>    8.4833   -0.0000 </r>
       <r>    8.5618   -0.0000 </r>
       <r>    8.5996   -0.0000 </r>
       <r>    8.6181   -0.0000 </r>
       <r>    8.6939   -0.0000 </r>
       <r>    8.7369   -0.0000 </r>
      </set>
     </set>
    </set>
   </array>
  </eigenvalues>
  <separator name="orbital magnetization" >
   <v name="MAGDIPOLOUT">      0.00000000      0.00000000      0.00000000</v>
  </separator>
  <dos>
   <i name="efermi">      6.42016325 </i>
   <total>
    <array>
     <dimension dim="1">gridpoints</dimension>
     <dimension dim="2">spin</dimension>
     <field>energy</field>
     <field>total</field>
     <field>integrated</field>
     <set>
      <set comment="spin 1">
       <r>   -50.6880     0.0000     0.0000 </r>
       <r>   -50.4804     0.0000     0.0000 </r>
       <r>   -50.2728     0.0000     0.0000 </r>
       <r>   -50.0651     0.0000     0.0000 </r>
       <r>   -49.8575     0.0000     0.0000 </r>
       <r>   -49.6498    -0.0000    -0.0000 </r>
       <r>   -49.4422    -0.0000    -0.0000 </r>
       <r>   -49.2346    -0.0000    -0.0000 </r>
       <r>   -49.0269    -0.0000    -0.0000 </r>
       <r>   -48.8193    -0.0000    -0.0000 </r>
       <r>   -48.6116    -0.0000    -0.0000 </r>
       <r>   -48.4040    -0.0036    -0.0008 </r>
       <r>   -48.1964    -0.1780    -0.0377 </r>
       <r>   -47.9887     0.5061     0.0674 </r>
       <r>   -47.7811     7.0873     1.5389 </r>
       <r>   -47.5735    14.0878     4.4641 </r>
       <r>   -47.3658    18.9557     8.4000 </r>
       <r>   -47.1582     8.4143    10.1472 </r>
       <r>   -46.9505    -0.6168    10.0191 </r>
       <r>   -46.7429    -0.0913    10.0001 </r>
       <r>   -46.5353    -0.0006    10.0000 </r>
       <r>   -46.3276    -0.0000    10.0000 </r>
       <r>   -46.1200    -0.0000    10.0000 </r>
       <r>   -45.9124     0.0000    10.0000 </r>
       <r>   -45.7047     0.0000    10.0000 </r>
       <r>   -45.4971     0.0000    10.0000 </r>
       <r>   -45.2894     0.0000    10.0000 </r>
       <r>   -45.0818     0.0000    10.0000 </r>
       <r>   -44.8742     0.0000    10.0000 </r>
       <r>   -44.6665     0.0000    10.0000 </r>
       <r>   -44.4589     0.0000    10.0000 </r>
       <r>   -44.2513     0.0000    10.0000 </r>
       <r>   -44.0436     0.0000    10.0000 </r>
       <r>   -43.8360     0.0000    10.0000 </r>
       <r>   -43.6283     0.0000    10.0000 </r>
       <r>   -43.4207     0.0000    10.0000 </r>
       <r>   -43.2131     0.0000    10.0000 </r>
       <r>   -43.0054     0.0000    10.0000 </r>
       <r>   -42.7978     0.0000    10.0000 </r>
       <r>   -42.5901     0.0000    10.0000 </r>
       <r>   -42.3825     0.0000    10.0000 </r>
       <r>   -42.1749     0.0000    10.0000 </r>
       <r>   -41.9672     0.0000    10.0000 </r>
       <r>   -41.7596     0.0000    10.0000 </r>
       <r>   -41.5520     0.0000    10.0000 </r>
       <r>   -41.3443     0.0000    10.0000 </r>
       <r>   -41.1367     0.0000    10.0000 </r>
       <r>   -40.9290     0.0000    10.0000 </r>
       <r>   -40.7214     0.0000    10.0000 </r>
       <r>   -40.5138     0.0000    10.0000 </r>
       <r>   -40.3061     0.0000    10.0000 </r>
       <r>   -40.0985     0.0000    10.0000 </r>
       <r>   -39.8909     0.0000    10.0000 </r>
       <r>   -39.6832     0.0000    10.0000 </r>
       <r>   -39.4756     0.0000    10.0000 </r>
       <r>   -39.2679     0.0000    10.0000 </r>
       <r>   -39.0603     0.0000    10.0000 </r>
       <r>   -38.8527     0.0000    10.0000 </r>
       <r>   -38.6450     0.0000    10.0000 </r>
       <r>   -38.4374     0.0000    10.0000 </r>
       <r>   -38.2297     0.0000    10.0000 </r>
       <r>   -38.0221     0.0000    10.0000 </r>
       <r>   -37.8145     0.0000    10.0000 </r>
       <r>   -37.6068     0.0000    10.0000 </r>
       <r>   -37.3992     0.0000    10.0000 </r>
       <r>   -37.1916     0.0000    10.0000 </r>
       <r>   -36.9839     0.0000    10.0000 </r>
       <r>   -36.7763     0.0000    10.0000 </r>
       <r>   -36.5686     0.0000    10.0000 </r>
       <r>   -36.3610     0.0000    10.0000 </r>
       <r>   -36.1534     0.0000    10.0000 </r>
       <r>   -35.9457     0.0000    10.0000 </r>
       <r>   -35.7381     0.0000    10.0000 </r>
       <r>   -35.5305     0.0000    10.0000 </r>
       <r>   -35.3228     0.0000    10.0000 </r>
       <r>   -35.1152     0.0000    10.0000 </r>
       <r>   -34.9075     0.0000    10.0000 </r>
       <r>   -34.6999     0.0000    10.0000 </r>
       <r>   -34.4923     0.0000    10.0000 </r>
       <r>   -34.2846     0.0000    10.0000 </r>
       <r>   -34.0770     0.0000    10.0000 </r>
       <r>   -33.8693     0.0000    10.0000 </r>
       <r>   -33.6617     0.0000    10.0000 </r>
       <r>   -33.4541     0.0000    10.0000 </r>
       <r>   -33.2464     0.0000    10.0000 </r>
       <r>   -33.0388     0.0000    10.0000 </r>
       <r>   -32.8312     0.0000    10.0000 </r>
       <r>   -32.6235     0.0000    10.0000 </r>
       <r>   -32.4159     0.0000    10.0000 </r>
       <r>   -32.2082     0.0000    10.0000 </r>
       <r>   -32.0006     0.0000    10.0000 </r>
       <r>   -31.7930     0.0000    10.0000 </r>
       <r>   -31.5853     0.0000    10.0000 </r>
       <r>   -31.3777     0.0000    10.0000 </r>
       <r>   -31.1701     0.0000    10.0000 </r>
       <r>   -30.9624     0.0000    10.0000 </r>
       <r>   -30.7548     0.0000    10.0000 </r>
       <r>   -30.5471     0.0000    10.0000 </r>
       <r>   -30.3395     0.0000    10.0000 </r>
       <r>   -30.1319     0.0000    10.0000 </r>
       <r>   -29.9242     0.0000    10.0000 </r>
       <r>   -29.7166     0.0000    10.0000 </r>
       <r>   -29.5090     0.0000    10.0000 </r>
       <r>   -29.3013     0.0000    10.0000 </r>
       <r>   -29.0937     0.0000    10.0000 </r>
       <r>   -28.8860     0.0000    10.0000 </r>
       <r>   -28.6784     0.0000    10.0000 </r>
       <r>   -28.4708     0.0000    10.0000 </r>
       <r>   -28.2631     0.0000    10.0000 </r>
       <r>   -28.0555     0.0000    10.0000 </r>
       <r>   -27.8478     0.0000    10.0000 </r>
       <r>   -27.6402     0.0000    10.0000 </r>
       <r>   -27.4326     0.0000    10.0000 </r>
       <r>   -27.2249     0.0000    10.0000 </r>
       <r>   -27.0173     0.0000    10.0000 </r>
       <r>   -26.8097     0.0000    10.0000 </r>
       <r>   -26.6020     0.0000    10.0000 </r>
       <r>   -26.3944     0.0000    10.0000 </r>
       <r>   -26.1867     0.0000    10.0000 </r>
       <r>   -25.9791    -0.0000    10.0000 </r>
       <r>   -25.7715    -0.0000    10.0000 </r>
       <r>   -25.5638    -0.0000    10.0000 </r>
       <r>   -25.3562    -0.0000    10.0000 </r>
       <r>   -25.1486    -0.0000    10.0000 </r>
       <r>   -24.9409    -0.0000    10.0000 </r>
       <r>   -24.7333    -0.0134     9.9972 </r>
       <r>   -24.5256    -0.3825     9.9178 </r>
       <r>   -24.3180     1.1990    10.1667 </r>
       <r>   -24.1104    17.5147    13.8035 </r>
       <r>   -23.9027    29.0781    19.8412 </r>
       <r>   -23.6951    31.3382    26.3482 </r>
       <r>   -23.4874    36.2395    33.8729 </r>
       <r>   -23.2798    18.0741    37.6258 </r>
       <r>   -23.0722    10.6439    39.8358 </r>
       <r>   -22.8645     1.0823    40.0605 </r>
       <r>   -22.6569    -0.2836    40.0017 </r>
       <r>   -22.4493    -0.0080    40.0000 </r>
       <r>   -22.2416    -0.0000    40.0000 </r>
       <r>   -22.0340    -0.0000    40.0000 </r>
       <r>   -21.8263    -0.0000    40.0000 </r>
       <r>   -21.6187     0.0000    40.0000 </r>
       <r>   -21.4111     0.0000    40.0000 </r>
       <r>   -21.2034     0.0000    40.0000 </r>
       <r>   -20.9958     0.0000    40.0000 </r>
       <r>   -20.7882     0.0000    40.0000 </r>
       <r>   -20.5805     0.0000    40.0000 </r>
       <r>   -20.3729     0.0000    40.0000 </r>
       <r>   -20.1652     0.0000    40.0000 </r>
       <r>   -19.9576     0.0000    40.0000 </r>
       <r>   -19.7500     0.0000    40.0000 </r>
       <r>   -19.5423     0.0000    40.0000 </r>
       <r>   -19.3347     0.0000    40.0000 </r>
       <r>   -19.1270     0.0000    40.0000 </r>
       <r>   -18.9194     0.0000    40.0000 </r>
       <r>   -18.7118     0.0000    40.0000 </r>
       <r>   -18.5041     0.0000    40.0000 </r>
       <r>   -18.2965     0.0000    40.0000 </r>
       <r>   -18.0889     0.0000    40.0000 </r>
       <r>   -17.8812     0.0000    40.0000 </r>
       <r>   -17.6736     0.0000    40.0000 </r>
       <r>   -17.4659     0.0000    40.0000 </r>
       <r>   -17.2583     0.0000    40.0000 </r>
       <r>   -17.0507     0.0000    40.0000 </r>
       <r>   -16.8430     0.0000    40.0000 </r>
       <r>   -16.6354     0.0000    40.0000 </r>
       <r>   -16.4278     0.0000    40.0000 </r>
       <r>   -16.2201     0.0000    40.0000 </r>
       <r>   -16.0125     0.0000    40.0000 </r>
       <r>   -15.8048     0.0000    40.0000 </r>
       <r>   -15.5972     0.0000    40.0000 </r>
       <r>   -15.3896     0.0000    40.0000 </r>
       <r>   -15.1819     0.0000    40.0000 </r>
       <r>   -14.9743     0.0000    40.0000 </r>
       <r>   -14.7667     0.0000    40.0000 </r>
       <r>   -14.5590     0.0000    40.0000 </r>
       <r>   -14.3514     0.0000    40.0000 </r>
       <r>   -14.1437     0.0000    40.0000 </r>
       <r>   -13.9361     0.0000    40.0000 </r>
       <r>   -13.7285     0.0000    40.0000 </r>
       <r>   -13.5208     0.0000    40.0000 </r>
       <r>   -13.3132     0.0000    40.0000 </r>
       <r>   -13.1055     0.0000    40.0000 </r>
       <r>   -12.8979     0.0000    40.0000 </r>
       <r>   -12.6903     0.0000    40.0000 </r>
       <r>   -12.4826     0.0000    40.0000 </r>
       <r>   -12.2750     0.0000    40.0000 </r>
       <r>   -12.0674     0.0000    40.0000 </r>
       <r>   -11.8597     0.0000    40.0000 </r>
       <r>   -11.6521     0.0000    40.0000 </r>
       <r>   -11.4444     0.0000    40.0000 </r>
       <r>   -11.2368     0.0000    40.0000 </r>
       <r>   -11.0292     0.0000    40.0000 </r>
       <r>   -10.8215     0.0000    40.0000 </r>
       <r>   -10.6139     0.0000    40.0000 </r>
       <r>   -10.4063     0.0000    40.0000 </r>
       <r>   -10.1986     0.0000    40.0000 </r>
       <r>    -9.9910     0.0000    40.0000 </r>
       <r>    -9.7833     0.0000    40.0000 </r>
       <r>    -9.5757     0.0000    40.0000 </r>
       <r>    -9.3681     0.0000    40.0000 </r>
       <r>    -9.1604     0.0000    40.0000 </r>
       <r>    -8.9528     0.0000    40.0000 </r>
       <r>    -8.7451     0.0000    40.0000 </r>
       <r>    -8.5375     0.0000    40.0000 </r>
       <r>    -8.3299     0.0000    40.0000 </r>
       <r>    -8.1222     0.0000    40.0000 </r>
       <r>    -7.9146     0.0000    40.0000 </r>
       <r>    -7.7070     0.0000    40.0000 </r>
       <r>    -7.4993     0.0000    40.0000 </r>
       <r>    -7.2917     0.0000    40.0000 </r>
       <r>    -7.0840     0.0000    40.0000 </r>
       <r>    -6.8764     0.0000    40.0000 </r>
       <r>    -6.6688     0.0000    40.0000 </r>
       <r>    -6.4611     0.0000    40.0000 </r>
       <r>    -6.2535     0.0000    40.0000 </r>
       <r>    -6.0459     0.0000    40.0000 </r>
       <r>    -5.8382     0.0000    40.0000 </r>
       <r>    -5.6306     0.0000    40.0000 </r>
       <r>    -5.4229     0.0000    40.0000 </r>
       <r>    -5.2153     0.0000    40.0000 </r>
       <r>    -5.0077     0.0000    40.0000 </r>
       <r>    -4.8000     0.0000    40.0000 </r>
       <r>    -4.5924     0.0000    40.0000 </r>
       <r>    -4.3847     0.0000    40.0000 </r>
       <r>    -4.1771     0.0000    40.0000 </r>
       <r>    -3.9695     0.0000    40.0000 </r>
       <r>    -3.7618     0.0000    40.0000 </r>
       <r>    -3.5542     0.0000    40.0000 </r>
       <r>    -3.3466     0.0000    40.0000 </r>
       <r>    -3.1389     0.0000    40.0000 </r>
       <r>    -2.9313     0.0000    40.0000 </r>
       <r>    -2.7236     0.0000    40.0000 </r>
       <r>    -2.5160     0.0000    40.0000 </r>
       <r>    -2.3084     0.0000    40.0000 </r>
       <r>    -2.1007    -0.0000    40.0000 </r>
       <r>    -1.8931    -0.0000    40.0000 </r>
       <r>    -1.6855    -0.0000    40.0000 </r>
       <r>    -1.4778    -0.0000    40.0000 </r>
       <r>    -1.2702    -0.0000    40.0000 </r>
       <r>    -1.0625    -0.0000    40.0000 </r>
       <r>    -0.8549    -0.0003    39.9999 </r>
       <r>    -0.6473    -0.0090    39.9981 </r>
       <r>    -0.4396     0.0101    40.0002 </r>
       <r>    -0.2320     0.4683    40.0974 </r>
       <r>    -0.0244     1.1535    40.3369 </r>
       <r>     0.1833     1.4358    40.6350 </r>
       <r>     0.3909     2.1149    41.0742 </r>
       <r>     0.5986     1.9333    41.4756 </r>
       <r>     0.8062     2.2185    41.9363 </r>
       <r>     1.0138     3.0722    42.5742 </r>
       <r>     1.2215     3.1072    43.2193 </r>
       <r>     1.4291     3.7029    43.9882 </r>
       <r>     1.6368     4.1445    44.8488 </r>
       <r>     1.8444     5.2134    45.9313 </r>
       <r>     2.0520     5.3927    47.0510 </r>
       <r>     2.2597     7.6822    48.6461 </r>
       <r>     2.4673    13.5897    51.4679 </r>
       <r>     2.6749    20.2612    55.6748 </r>
       <r>     2.8826    24.3415    60.7291 </r>
       <r>     3.0902    25.5065    66.0252 </r>
       <r>     3.2979    28.8646    72.0186 </r>
       <r>     3.5055    30.6968    78.3924 </r>
       <r>     3.7131    31.7246    84.9796 </r>
       <r>     3.9208    32.4249    91.7123 </r>
       <r>     4.1284    29.3312    97.8025 </r>
       <r>     4.3360    26.0182   103.2049 </r>
       <r>     4.5437    27.7742   108.9719 </r>
       <r>     4.7513    35.2194   116.2848 </r>
       <r>     4.9590    40.6752   124.7305 </r>
       <r>     5.1666    41.7678   133.4031 </r>
       <r>     5.3742    41.7741   142.0770 </r>
       <r>     5.5819    40.7035   150.5286 </r>
       <r>     5.7895    41.2778   159.0994 </r>
       <r>     5.9972    42.3866   167.9005 </r>
       <r>     6.2048    41.8124   176.5824 </r>
       <r>     6.4124    39.1459   184.7105 </r>
       <r>     6.6201    34.9572   191.9690 </r>
       <r>     6.8277    29.0244   197.9955 </r>
       <r>     7.0353    21.7885   202.5197 </r>
       <r>     7.2430    18.8574   206.4352 </r>
       <r>     7.4506    18.8728   210.3539 </r>
       <r>     7.6583    19.7693   214.4587 </r>
       <r>     7.8659    22.4656   219.1234 </r>
       <r>     8.0735    26.9852   224.7266 </r>
       <r>     8.2812    31.3568   231.2375 </r>
       <r>     8.4888    27.2241   236.8902 </r>
       <r>     8.6964    13.7377   239.7427 </r>
       <r>     8.9041     1.5490   240.0643 </r>
       <r>     9.1117    -0.2879   240.0045 </r>
       <r>     9.3194    -0.0217   240.0000 </r>
       <r>     9.5270    -0.0002   240.0000 </r>
       <r>     9.7346    -0.0000   240.0000 </r>
       <r>     9.9423    -0.0000   240.0000 </r>
       <r>    10.1499    -0.0000   240.0000 </r>
       <r>    10.3576     0.0000   240.0000 </r>
       <r>    10.5652     0.0000   240.0000 </r>
       <r>    10.7728     0.0000   240.0000 </r>
       <r>    10.9805     0.0000   240.0000 </r>
       <r>    11.1881     0.0000   240.0000 </r>
       <r>    11.3957     0.0000   240.0000 </r>
       <r>    11.6034     0.0000   240.0000 </r>
      </set>
     </set>
    </array>
   </total>
  </dos>
 </calculation>
 <structure name="finalpos" >
  <crystal>
   <varray name="basis" >
    <v>      -3.16316047      -3.11771736      -3.17577932 </v>
    <v>       1.48929406       1.56170122      -7.85040068 </v>
    <v>       7.89047781      -7.87087462      -1.49357333 </v>
   </varray>
   <i name="volume">    465.37577349 </i>
   <varray name="rec_basis" >
    <v>      -0.13778550      -0.12832435      -0.05166710 </v>
    <v>       0.04370580       0.06399738      -0.10635947 </v>
    <v>       0.06324985      -0.06352231      -0.00063758 </v>
   </varray>
  </crystal>
  <varray name="positions" >
   <v>       0.95526290       0.93582964       0.39689188 </v>
   <v>       0.62957807       0.26692952       0.40073806 </v>
   <v>       0.00591183      -0.00023039       0.00167430 </v>
   <v>       0.09802518       0.20959947       0.79461484 </v>
   <v>       0.04010076       0.06791514       0.59960936 </v>
   <v>       0.91073803       0.79453449       0.20037737 </v>
   <v>       0.80394563       0.59420723       0.39850422 </v>
   <v>       0.72887383       0.46881772       0.19687056 </v>
   <v>       0.66881880       0.34305652      -0.00551367 </v>
   <v>       0.37300763       0.72445726       0.60482186 </v>
   <v>       0.13118859       0.27462983       0.40018453 </v>
   <v>       0.82588561       0.67552157       0.00260335 </v>
   <v>       0.92483727       0.87547817       0.79891992 </v>
   <v>       0.56095606       0.12805079       0.18212440 </v>
   <v>       0.40943166       0.79859641       0.18747613 </v>
   <v>       0.43593048       0.85958423       0.80924578 </v>
   <v>       0.30149524       0.60318294       0.40415313 </v>
   <v>       0.85517935       0.73084277       0.60082200 </v>
   <v>       0.46421036       0.93010295       0.40484824 </v>
   <v>       0.19154562       0.31942516      -0.00008088 </v>
   <v>       0.27479723       0.52930593       0.79906658 </v>
   <v>       0.20344596       0.38872061       0.59791689 </v>
   <v>       0.04978039       0.15175504       0.20705099 </v>
   <v>       0.76410562       0.52311817       0.80690563 </v>
   <v>       0.68285897       0.41270897       0.60822451 </v>
   <v>       0.60101766       0.21101337       0.79364369 </v>
   <v>       0.54726908       0.06934607       0.61260365 </v>
   <v>       0.33364855       0.64212896       0.00030635 </v>
   <v>       0.22815365       0.47137146       0.19539633 </v>
  </varray>
 </structure>
</modeling>
