Nb - Mo - Ta - Ti - V SQS               
           1
    -3.160000   -3.160000   -3.160000
     1.580000    1.580000   -7.900000
     7.900000   -7.900000   -1.580000
   Nb   Mo   Ta   Ti   V 
   5   6   6   6   6
Direct configuration=     1
   0.96666667  0.93333333  0.40000000
   0.63333333  0.26666667  0.40000000
   0.00000000  0.00000000  0.00000000
   0.10000000  0.20000000  0.80000000
   0.03333333  0.06666667  0.60000000
   0.90000000  0.80000000  0.20000000
   0.80000000  0.60000000  0.40000000
   0.73333333  0.46666667  0.20000000
   0.66666667  0.33333333  0.00000000
   0.36666667  0.73333333  0.60000000
   0.13333333  0.26666667  0.40000000
   0.83333333  0.66666667  0.00000000
   0.93333333  0.86666667  0.80000000
   0.56666667  0.13333333  0.20000000
   0.40000000  0.80000000  0.20000000
   0.43333333  0.86666667  0.80000000
   0.30000000  0.60000000  0.40000000
   0.86666667  0.73333333  0.60000000
   0.46666667  0.93333333  0.40000000
   0.16666667  0.33333333  0.00000000
   0.26666667  0.53333333  0.80000000
   0.20000000  0.40000000  0.60000000
   0.06666667  0.13333333  0.20000000
   0.76666667  0.53333333  0.80000000
   0.70000000  0.40000000  0.60000000
   0.60000000  0.20000000  0.80000000
   0.53333333  0.06666667  0.60000000
   0.33333333  0.66666667  0.00000000
   0.23333333  0.46666667  0.20000000
Nb - Mo - Ta - Ti - V SQS               
           1
    -3.115153   -3.099117   -3.114582
     1.547635    1.565746   -7.792701
     7.799954   -7.780597   -1.536558
   Nb   Mo   Ta   Ti   V 
   5   6   6   6   6
Direct configuration=     2
   0.96288657  0.93385729  0.39805545
   0.63195977  0.26693736  0.40201881
  -0.00116703 -0.00095718  0.00094942
   0.09622310  0.20499240  0.79763692
   0.03420314  0.06822782  0.59980573
   0.90375521  0.79746707  0.20127813
   0.80298310  0.59577713  0.39925852
   0.73263252  0.46676710  0.19821697
   0.66564863  0.33868890 -0.00104582
   0.37034470  0.72991489  0.60052996
   0.13424384  0.27018209  0.39951947
   0.83015745  0.66949780  0.00196040
   0.93102167  0.86898349  0.79938072
   0.56596778  0.13241427  0.19432489
   0.40496246  0.79806496  0.19406953
   0.43736320  0.86329926  0.80075208
   0.30037138  0.60019986  0.40309261
   0.86297332  0.73206272  0.59987208
   0.46621706  0.93221198  0.40286878
   0.17134357  0.33024130  0.00065557
   0.27005356  0.53372854  0.79987034
   0.20097034  0.39620594  0.59989914
   0.06193464  0.13941804  0.20323504
   0.76672975  0.52910947  0.80156608
   0.69573973  0.40359739  0.60144244
   0.60082880  0.20180625  0.79886444
   0.53557715  0.06811981  0.60247387
   0.33322933  0.66036264  0.00035204
   0.23084525  0.46882138  0.19909639
Nb - Mo - Ta - Ti - V SQS               
           1
    -3.120201   -3.105970   -3.119694
     1.551278    1.567350   -7.804778
     7.811215   -7.794037   -1.541448
   Nb   Mo   Ta   Ti   V 
   5   6   6   6   6
Direct configuration=     3
   0.96331995  0.93379736  0.39827778
   0.63211608  0.26690603  0.40178851
  -0.00103398 -0.00084822  0.00084132
   0.09665659  0.20442266  0.79790643
   0.03410380  0.06804981  0.59982759
   0.90332483  0.79775633  0.20113214
   0.80264182  0.59625943  0.39934336
   0.73271348  0.46675582  0.19842056
   0.66576592  0.33807783 -0.00092704
   0.36992341  0.73030529  0.60046949
   0.13414010  0.26978113  0.39957375
   0.83052018  0.66917411  0.00173663
   0.93128658  0.86871895  0.79945137
   0.56605011  0.13251988  0.19497287
   0.40439708  0.79828717  0.19474613
   0.43690157  0.86368385  0.80066620
   0.30032758  0.60017665  0.40273954
   0.86339587  0.73220731  0.59988729
   0.46626720  0.93233947  0.40254153
   0.17080797  0.33059454  0.00058060
   0.26966613  0.53368384  0.79988469
   0.20085910  0.39663899  0.59991104
   0.06247509  0.13872274  0.20286553
   0.76672158  0.52959122  0.80138787
   0.69622680  0.40318622  0.60127782
   0.60073458  0.20160040  0.79899372
   0.53531946  0.06795389  0.60219104
   0.33324066  0.66108191  0.00031270
   0.23113046  0.46857537  0.19919954
Nb - Mo - Ta - Ti - V SQS               
           1
    -3.131072   -3.104120   -3.130806
     1.545985    1.576540   -7.831956
     7.847755   -7.816238   -1.529537
   Nb   Mo   Ta   Ti   V 
   5   6   6   6   6
Direct configuration=     4
   0.96018798  0.93434597  0.39699567
   0.63114255  0.26686163  0.40314213
  -0.00162237 -0.00127276  0.00160131
   0.09398536  0.20833243  0.79614284
   0.03480158  0.06925147  0.59957939
   0.90665600  0.79556676  0.20192739
   0.80471002  0.59321964  0.39893691
   0.73207542  0.46656478  0.19721239
   0.66463021  0.34247067 -0.00218767
   0.37305549  0.72732302  0.60111565
   0.13479191  0.27234813  0.39933741
   0.82761999  0.67203908  0.00305848
   0.92922247  0.87068531  0.79893945
   0.56463362  0.13156893  0.18997121
   0.40818403  0.79755400  0.18988045
   0.43961409  0.86124331  0.80176866
   0.30101107  0.60049994  0.40499913
   0.86029081  0.73113493  0.59983601
   0.46599551  0.93137783  0.40466785
   0.17570206  0.32755750  0.00110983
   0.27267003  0.53367778  0.79979573
   0.20166162  0.39346504  0.60001604
   0.05863757  0.14377516  0.20532214
   0.76677319  0.52586391  0.80268770
   0.69239108  0.40626306  0.60289979
   0.60110099  0.20339104  0.79802278
   0.53750794  0.06916753  0.60448068
   0.33334719  0.65535709  0.00049291
   0.22922255  0.47036683  0.19824773
Nb - Mo - Ta - Ti - V SQS               
           1
    -3.141990   -3.102261   -3.141965
     1.540670    1.585768   -7.859250
     7.884449   -7.838533   -1.517576
   Nb   Mo   Ta   Ti   V 
   5   6   6   6   6
Direct configuration=     5
   0.95704433  0.93489631  0.39571089
   0.63017061  0.26681951  0.40449560
  -0.00220958 -0.00169638  0.00236081
   0.09129881  0.21224635  0.79437981
   0.03549911  0.07045346  0.59933274
   0.90999960  0.79337313  0.20272372
   0.80678506  0.59017465  0.39852914
   0.73143259  0.46637273  0.19600292
   0.66348379  0.34686742 -0.00344580
   0.37619988  0.72433588  0.60176193
   0.13544202  0.27491686  0.39910383
   0.82471378  0.67491080  0.00438126
   0.92714999  0.87265477  0.79842742
   0.56320043  0.13061262  0.18496505
   0.41196690  0.79681148  0.18501474
   0.44233868  0.85879932  0.80287162
   0.30170232  0.60082551  0.40726070
   0.85717925  0.73006401  0.59978121
   0.46573020  0.93041784  0.40679413
   0.18061241  0.32451393  0.00164050
   0.27568086  0.53366911  0.79970916
   0.20246953  0.39028738  0.60011882
   0.05479283  0.14883856  0.20778151
   0.76683237  0.52213431  0.80398478
   0.68854774  0.40934799  0.60452228
   0.60146372  0.20518207  0.79705330
   0.53970697  0.07038311  0.60677435
   0.33346024  0.64962669  0.00066802
   0.22730558  0.47216059  0.19729556
Nb - Mo - Ta - Ti - V SQS               
           1
    -3.152278   -3.113439   -3.154514
     1.537580    1.582491   -7.873628
     7.902627   -7.861175   -1.521526
   Nb   Mo   Ta   Ti   V 
   5   6   6   6   6
Direct configuration=     6
   0.95706031  0.93493708  0.39629514
   0.63074647  0.26648639  0.40332117
  -0.00173071 -0.00112253  0.00205921
   0.09218637  0.21112879  0.79475250
   0.03594480  0.06994941  0.59914674
   0.91058681  0.79350193  0.20232594
   0.80610414  0.59118850  0.39856940
   0.73073834  0.46661468  0.19679061
   0.66411450  0.34614880 -0.00392989
   0.37551683  0.72455161  0.60240436
   0.13467030  0.27426062  0.39957157
   0.82534924  0.67530978  0.00367360
   0.92796085  0.87308063  0.79852578
   0.56253127  0.13030272  0.18471762
   0.41069500  0.79758396  0.18594651
   0.44036680  0.85916160  0.80346704
   0.30223186  0.60155165  0.40623670
   0.85730994  0.73009645  0.59984889
   0.46564010  0.93019283  0.40615709
   0.18196840  0.32414703  0.00148353
   0.27578496  0.53301012  0.79969838
   0.20267730  0.39018859  0.60002780
   0.05421767  0.14894203  0.20749118
   0.76657474  0.52226695  0.80432236
   0.68770845  0.40973758  0.60527423
   0.60121824  0.20601653  0.79675181
   0.54084212  0.07008427  0.60759148
   0.33314222  0.64880367  0.00040072
   0.22784265  0.47187832  0.19707854
Nb - Mo - Ta - Ti - V SQS               
           1
    -3.160832   -3.122731   -3.164947
     1.535011    1.579767   -7.885583
     7.917740   -7.879999   -1.524810
   Nb   Mo   Ta   Ti   V 
   5   6   6   6   6
Direct configuration=     7
   0.95707321  0.93497105  0.39677964
   0.63122461  0.26620943  0.40234724
  -0.00133459 -0.00064612  0.00180908
   0.09292301  0.21020070  0.79506153
   0.03631482  0.06953073  0.59899248
   0.91107335  0.79360873  0.20199605
   0.80553863  0.59203053  0.39860280
   0.73016244  0.46681587  0.19744383
   0.66463823  0.34555184 -0.00433135
   0.37495032  0.72473098  0.60293712
   0.13403158  0.27371587  0.39995949
   0.82587554  0.67564087  0.00308673
   0.92863202  0.87343417  0.79860730
   0.56197742  0.13004542  0.18451248
   0.40963975  0.79822582  0.18671924
   0.43873235  0.85946286  0.80396090
   0.30267014  0.60215438  0.40538751
   0.85741814  0.73012339  0.59990502
   0.46556608  0.93000586  0.40562884
   0.18309240  0.32384211  0.00135328
   0.27587209  0.53246286  0.79968943
   0.20284961  0.39010651  0.59995232
   0.05374117  0.14902798  0.20725045
   0.76636095  0.52237721  0.80460232
   0.68701222  0.41006137  0.60589782
   0.60101390  0.20670946  0.79650180
   0.54178257  0.06983610  0.60826903
   0.33287998  0.64812020  0.00017909
   0.22828808  0.47164378  0.19689856
Nb - Mo - Ta - Ti - V SQS               
           1
    -3.159725   -3.121821   -3.166024
     1.525449    1.570893   -7.870952
     7.907366   -7.873435   -1.521951
   Nb   Mo   Ta   Ti   V 
   5   6   6   6   6
Direct configuration=     8
   0.95704051  0.93497828  0.39720104
   0.63149896  0.26600664  0.40135548
  -0.00079600 -0.00015951  0.00159684
   0.09378700  0.20922556  0.79529876
   0.03683528  0.06908362  0.59890693
   0.91143097  0.79375932  0.20159926
   0.80509826  0.59284367  0.39862670
   0.72951026  0.46726234  0.19794627
   0.66529211  0.34499858 -0.00473349
   0.37438617  0.72484252  0.60349213
   0.13328434  0.27332859  0.40035464
   0.82625892  0.67591115  0.00263038
   0.92892801  0.87392745  0.79862389
   0.56149680  0.12969548  0.18417763
   0.40889454  0.79874519  0.18745480
   0.43726805  0.85971342  0.80459719
   0.30305009  0.60271418  0.40459123
   0.85743278  0.73016121  0.59996336
   0.46545661  0.92978109  0.40507058
   0.18451615  0.32347957  0.00120715
   0.27604763  0.53174140  0.79965072
   0.20309284  0.38989810  0.59976955
   0.05292896  0.14930408  0.20707779
   0.76602838  0.52242127  0.80502154
   0.68608141  0.41053747  0.60661403
   0.60081430  0.20762852  0.79611117
   0.54294850  0.06958528  0.60913621
   0.33273294  0.64716867 -0.00001785
   0.22865526  0.47141682  0.19667607
Nb - Mo - Ta - Ti - V SQS               
           1
    -3.158280   -3.120634   -3.167430
     1.512967    1.559311   -7.851856
     7.893827   -7.864867   -1.518220
   Nb   Mo   Ta   Ti   V 
   5   6   6   6   6
Direct configuration=     9
   0.95699757  0.93498794  0.39775166
   0.63185813  0.26574078  0.40005961
  -0.00009384  0.00047699  0.00131956
   0.09491694  0.20794945  0.79560866
   0.03751577  0.06849838  0.59879512
   0.91189774  0.79395609  0.20108080
   0.80452155  0.59390779  0.39865798
   0.72865759  0.46784695  0.19860281
   0.66614718  0.34427426 -0.00525897
   0.37364912  0.72498887  0.60421732
   0.13230944  0.27282222  0.40087095
   0.82675910  0.67626451  0.00203412
   0.92931332  0.87457284  0.79864560
   0.56087033  0.12923758  0.18374011
   0.40792011  0.79942533  0.18841594
   0.43535550  0.86004198  0.80542861
   0.30354533  0.60344623  0.40355084
   0.85745176  0.73021073  0.60003959
   0.46531450  0.92948677  0.40434114
   0.18637572  0.32300470  0.00101616
   0.27627841  0.53079730  0.79960008
   0.20341094  0.38962524  0.59953072
   0.05186812  0.14966552  0.20685223
   0.76559387  0.52247921  0.80556932
   0.68486480  0.41116104  0.60754987
   0.60055193  0.20883102  0.79560083
   0.54447067  0.06925712  0.61026925
   0.33254319  0.64592354 -0.00027522
   0.22913522  0.47111964  0.19638533
Nb - Mo - Ta - Ti - V SQS               
           1
    -3.157583   -3.118525   -3.167047
     1.509498    1.558101   -7.847626
     7.891062   -7.861589   -1.515008
   Nb   Mo   Ta   Ti   V 
   5   6   6   6   6
Direct configuration=    10
   0.95687834  0.93498081  0.39756290
   0.63131666  0.26590344  0.40025127
   0.00035321  0.00047713  0.00143171
   0.09528387  0.20809651  0.79547563
   0.03782816  0.06846483  0.59896219
   0.91156201  0.79405303  0.20098067
   0.80473496  0.59385042  0.39868662
   0.72871054  0.46817644  0.19819248
   0.66636623  0.34434149 -0.00526034
   0.37369761  0.72486104  0.60420967
   0.13231423  0.27311326  0.40078032
   0.82642299  0.67611875  0.00218117
   0.92831511  0.87472427  0.79850393
   0.56082279  0.12905772  0.18344145
   0.40843574  0.79935021  0.18818990
   0.43606825  0.85989808  0.80583473
   0.30330301  0.60320590  0.40379088
   0.85727931  0.73021133  0.60012330
   0.46523107  0.92952612  0.40439810
   0.18698655  0.32275212  0.00094182
   0.27623197  0.53051502  0.79953325
   0.20348056  0.38947165  0.59936850
   0.05143294  0.14998190  0.20696901
   0.76547421  0.52241812  0.80577252
   0.68457060  0.41137215  0.60769938
   0.60044333  0.20916537  0.79539592
   0.54473511  0.06928055  0.61052133
   0.33275911  0.64548485 -0.00021813
   0.22896153  0.47114748  0.19627982
Nb - Mo - Ta - Ti - V SQS               
           1
    -3.156123   -3.114103   -3.166244
     1.502224    1.555563   -7.838756
     7.885265   -7.854715   -1.508273
   Nb   Mo   Ta   Ti   V 
   5   6   6   6   6
Direct configuration=    11
   0.95662814  0.93496580  0.39716690
   0.63018071  0.26624500  0.40065326
   0.00129107  0.00047738  0.00166708
   0.09605343  0.20840494  0.79519665
   0.03848359  0.06839443  0.59931273
   0.91085758  0.79425649  0.20077057
   0.80518270  0.59372999  0.39874674
   0.72882116  0.46886760  0.19733180
   0.66682570  0.34448249 -0.00526315
   0.37379945  0.72459278  0.60419360
   0.13232400  0.27372395  0.40059028
   0.82571810  0.67581304  0.00248955
   0.92622088  0.87504222  0.79820660
   0.56072308  0.12868017  0.18281486
   0.40951739  0.79919233  0.18771579
   0.43756374  0.85959616  0.80668679
   0.30279500  0.60270178  0.40429432
   0.85691759  0.73021270  0.60029890
   0.46505604  0.92960875  0.40451759
   0.18826813  0.32222190  0.00078591
   0.27613477  0.52992265  0.79939295
   0.20362667  0.38914927  0.59902818
   0.05051980  0.15064595  0.20721400
   0.76522335  0.52229007  0.80619875
   0.68395331  0.41181531  0.60801303
   0.60021513  0.20986690  0.79496615
   0.54528993  0.06932979  0.61105020
   0.33321246  0.64456427 -0.00009846
   0.22859709  0.47120588  0.19605846
Nb - Mo - Ta - Ti - V SQS               
           1
    -3.160632   -3.116975   -3.171573
     1.500680    1.557701   -7.848963
     7.894710   -7.864352   -1.506644
   Nb   Mo   Ta   Ti   V 
   5   6   6   6   6
Direct configuration=    12
   0.95639778  0.93506464  0.39694854
   0.62977191  0.26641695  0.40088343
   0.00203363  0.00041030  0.00173568
   0.09653585  0.20866357  0.79507727
   0.03886653  0.06834808  0.59945033
   0.91069018  0.79438726  0.20066852
   0.80521666  0.59366144  0.39875152
   0.72894040  0.46905266  0.19695742
   0.66720145  0.34443238 -0.00527338
   0.37384238  0.72446024  0.60422079
   0.13220403  0.27405028  0.40043962
   0.82539974  0.67573425  0.00259440
   0.92534836  0.87518597  0.79815036
   0.56063219  0.12852352  0.18250213
   0.40987601  0.79909347  0.18742171
   0.43788931  0.85944779  0.80726706
   0.30253949  0.60252644  0.40450262
   0.85662769  0.73025046  0.60041910
   0.46493197  0.92968362  0.40463039
   0.18902607  0.32176596  0.00064794
   0.27597225  0.52962786  0.79928570
   0.20368365  0.38894190  0.59884417
   0.05007241  0.15105031  0.20730993
   0.76507831  0.52231459  0.80641795
   0.68366010  0.41202872  0.60816257
   0.60013888  0.21020195  0.79472032
   0.54564003  0.06935840  0.61135115
   0.33341728  0.64403386  0.00000470
   0.22836545  0.47128312  0.19590806
Nb - Mo - Ta - Ti - V SQS               
           1
    -3.162059   -3.117884   -3.173260
     1.500192    1.558378   -7.852195
     7.897701   -7.867404   -1.506129
   Nb   Mo   Ta   Ti   V 
   5   6   6   6   6
Direct configuration=    13
   0.95632491  0.93509589  0.39687949
   0.62964263  0.26647137  0.40095622
   0.00226845  0.00038905  0.00175739
   0.09668835  0.20874532  0.79503956
   0.03898763  0.06833341  0.59949386
   0.91063723  0.79442862  0.20063625
   0.80522740  0.59363976  0.39875303
   0.72897806  0.46911113  0.19683905
   0.66732028  0.34441651 -0.00527661
   0.37385597  0.72441833  0.60422938
   0.13216605  0.27415347  0.40039199
   0.82529908  0.67570936  0.00262753
   0.92507244  0.87523147  0.79813255
   0.56060345  0.12847395  0.18240322
   0.40998941  0.79906215  0.18732871
   0.43799231  0.85940091  0.80745056
   0.30245873  0.60247103  0.40456847
   0.85653602  0.73026244  0.60045711
   0.46489274  0.92970731  0.40466606
   0.18926580  0.32162172  0.00060430
   0.27592090  0.52953462  0.79925176
   0.20370169  0.38887629  0.59878597
   0.04993089  0.15117822  0.20734028
   0.76503245  0.52232239  0.80648726
   0.68356736  0.41209625  0.60820987
   0.60011471  0.21030788  0.79464260
   0.54575074  0.06936747  0.61144634
   0.33348212  0.64386613  0.00003730
   0.22829218  0.47130754  0.19586050
Nb - Mo - Ta - Ti - V SQS               
           1
    -3.162158   -3.117545   -3.174225
     1.498292    1.558681   -7.853108
     7.896120   -7.867009   -1.504314
   Nb   Mo   Ta   Ti   V 
   5   6   6   6   6
Direct configuration=    14
   0.95615529  0.93521169  0.39682305
   0.62971584  0.26653743  0.40098219
   0.00280032  0.00027492  0.00172414
   0.09689297  0.20889814  0.79501583
   0.03917464  0.06828549  0.59948443
   0.91080054  0.79448348  0.20059714
   0.80501147  0.59363106  0.39870621
   0.72899609  0.46902800  0.19684738
   0.66758337  0.34428502 -0.00530256
   0.37383711  0.72436729  0.60431098
   0.13191803  0.27426604  0.40032175
   0.82535701  0.67571433  0.00261158
   0.92518710  0.87527846  0.79822965
   0.56056239  0.12844560  0.18233130
   0.40986983  0.79896611  0.18727787
   0.43752661  0.85935200  0.80775919
   0.30236901  0.60260030  0.40449823
   0.85632033  0.73031714  0.60050552
   0.46480446  0.92974118  0.40471606
   0.18960926  0.32131780  0.00052179
   0.27576688  0.52947503  0.79920077
   0.20367926  0.38878553  0.59868790
   0.04979834  0.15137631  0.20731201
   0.76491408  0.52241433  0.80657288
   0.68344326  0.41220356  0.60826418
   0.60019209  0.21043900  0.79450127
   0.54601434  0.06933929  0.61163223
   0.33350137  0.64358762  0.00010640
   0.22819871  0.47137785  0.19576061
Nb - Mo - Ta - Ti - V SQS               
           1
    -3.162452   -3.116528   -3.177119
     1.492595    1.559591   -7.855846
     7.891376   -7.865826   -1.498868
   Nb   Mo   Ta   Ti   V 
   5   6   6   6   6
Direct configuration=    15
   0.95564635  0.93555911  0.39665376
   0.62993542  0.26673559  0.40106015
   0.00439601 -0.00006768  0.00162439
   0.09750669  0.20935649  0.79494474
   0.03973568  0.06814165  0.59945616
   0.91129042  0.79464800  0.20047983
   0.80436368  0.59360499  0.39856573
   0.72905023  0.46877861  0.19687233
   0.66837276  0.34389047 -0.00538046
   0.37378055  0.72421422  0.60455580
   0.13117391  0.27460377  0.40011101
   0.82553078  0.67572921  0.00256372
   0.92553101  0.87541944  0.79852101
   0.56043925  0.12836051  0.18211548
   0.40951119  0.79867798  0.18712528
   0.43612952  0.85920567  0.80868515
   0.30209976  0.60298809  0.40428753
   0.85567325  0.73048136  0.60065077
   0.46453959  0.92984283  0.40486607
   0.19063989  0.32040589  0.00027413
   0.27530487  0.52929627  0.79904775
   0.20361206  0.38851321  0.59839362
   0.04940056  0.15197056  0.20722726
   0.76455887  0.52269027  0.80682979
   0.68307086  0.41252557  0.60842717
   0.60042414  0.21083219  0.79407730
   0.54680513  0.06925479  0.61218998
   0.33355930  0.64275219  0.00031360
   0.22791827  0.47158872  0.19546094
Nb - Mo - Ta - Ti - V SQS               
           1
    -3.161064   -3.115436   -3.175108
     1.491063    1.559334   -7.850285
     7.887116   -7.863357   -1.496845
   Nb   Mo   Ta   Ti   V 
   5   6   6   6   6
Direct configuration=    16
   0.95553767  0.93563876  0.39671154
   0.62983964  0.26678900  0.40095802
   0.00482515 -0.00011590  0.00162760
   0.09766602  0.20940318  0.79486960
   0.03987035  0.06806645  0.59948500
   0.91109029  0.79461787  0.20042605
   0.80426487  0.59378584  0.39852729
   0.72899065  0.46881232  0.19689599
   0.66851138  0.34364095 -0.00539482
   0.37354894  0.72428418  0.60464307
   0.13118125  0.27461480  0.40014593
   0.82568283  0.67568905  0.00256279
   0.92530029  0.87542408  0.79864463
   0.56058242  0.12828274  0.18212274
   0.40950092  0.79866443  0.18724165
   0.43603942  0.85929622  0.80886501
   0.30191422  0.60303002  0.40423438
   0.85554180  0.73058709  0.60068727
   0.46444791  0.92991207  0.40483650
   0.19091912  0.32012233  0.00017614
   0.27512733  0.52932027  0.79905332
   0.20356915  0.38854952  0.59824051
   0.04948208  0.15192511  0.20716294
   0.76442584  0.52282572  0.80687216
   0.68300325  0.41258535  0.60837473
   0.60062297  0.21088981  0.79395302
   0.54697520  0.06924231  0.61233056
   0.33355382  0.64257356  0.00030785
   0.22798522  0.47154286  0.19543854
Nb - Mo - Ta - Ti - V SQS               
           1
    -3.161093   -3.115459   -3.175151
     1.491096    1.559340   -7.850404
     7.887207   -7.863410   -1.496888
   Nb   Mo   Ta   Ti   V 
   5   6   6   6   6
Direct configuration=    17
   0.95554000  0.93563705  0.39671030
   0.62984170  0.26678785  0.40096021
   0.00481595 -0.00011487  0.00162753
   0.09766260  0.20940218  0.79487121
   0.03986746  0.06806806  0.59948438
   0.91109458  0.79461851  0.20042721
   0.80426699  0.59378196  0.39852812
   0.72899193  0.46881160  0.19689548
   0.66850841  0.34364630 -0.00539451
   0.37355391  0.72428267  0.60464120
   0.13118109  0.27461457  0.40014518
   0.82567957  0.67568991  0.00256281
   0.92530524  0.87542398  0.79864198
   0.56057934  0.12828441  0.18212259
   0.40950114  0.79866472  0.18723915
   0.43604135  0.85929427  0.80886116
   0.30191820  0.60302912  0.40423552
   0.85554462  0.73058483  0.60068649
   0.46444988  0.92991059  0.40483713
   0.19091313  0.32012841  0.00017824
   0.27513114  0.52931976  0.79905320
   0.20357007  0.38854874  0.59824379
   0.04948033  0.15192609  0.20716432
   0.76442869  0.52282282  0.80687125
   0.68300470  0.41258407  0.60837585
   0.60061870  0.21088858  0.79395569
   0.54697155  0.06924258  0.61232755
   0.33355394  0.64257739  0.00030798
   0.22798378  0.47154384  0.19543902
Nb - Mo - Ta - Ti - V SQS               
           1
    -3.161428   -3.115936   -3.175014
     1.490629    1.559836   -7.849695
     7.887457   -7.864837   -1.496023
   Nb   Mo   Ta   Ti   V 
   5   6   6   6   6
Direct configuration=    18
   0.95545997  0.93569359  0.39676703
   0.62975611  0.26682559  0.40088572
   0.00512845 -0.00014202  0.00163267
   0.09777595  0.20944677  0.79480488
   0.03995248  0.06801492  0.59951474
   0.91094127  0.79459143  0.20039537
   0.80418971  0.59392321  0.39851228
   0.72894066  0.46883691  0.19690230
   0.66859905  0.34345713 -0.00542321
   0.37337351  0.72433489  0.60470416
   0.13120539  0.27461506  0.40017785
   0.82577050  0.67566124  0.00255951
   0.92512102  0.87542845  0.79872823
   0.56069476  0.12821692  0.18212455
   0.40949450  0.79865365  0.18732024
   0.43602013  0.85937655  0.80897837
   0.30177922  0.60306638  0.40420627
   0.85545376  0.73065434  0.60072342
   0.46438920  0.92996127  0.40482732
   0.19110505  0.31992813  0.00009684
   0.27502711  0.52932011  0.79905909
   0.20353999  0.38859267  0.59815042
   0.04956276  0.15187560  0.20712030
   0.76434062  0.52291516  0.80688466
   0.68296456  0.41261146  0.60833856
   0.60074777  0.21092263  0.79386775
   0.54706468  0.06925976  0.61241806
   0.33356080  0.64245900  0.00029453
   0.22804098  0.47149920  0.19542808
Nb - Mo - Ta - Ti - V SQS               
           1
    -3.162106   -3.116904   -3.174735
     1.489681    1.560844   -7.848256
     7.887964   -7.867734   -1.494266
   Nb   Mo   Ta   Ti   V 
   5   6   6   6   6
Direct configuration=    19
   0.95529753  0.93580839  0.39688219
   0.62958241  0.26690217  0.40073451
   0.00576280 -0.00019711  0.00164311
   0.09800606  0.20953729  0.79467024
   0.04012505  0.06790706  0.59957637
   0.91063006  0.79453643  0.20033073
   0.80403286  0.59420994  0.39848015
   0.72883658  0.46888828  0.19691613
   0.66878303  0.34307309 -0.00548147
   0.37300733  0.72444090  0.60483195
   0.13125472  0.27461609  0.40024418
   0.82595506  0.67560303  0.00255282
   0.92474705  0.87543753  0.79890330
   0.56092904  0.12807993  0.18212854
   0.40948100  0.79863120  0.18748485
   0.43597704  0.85954363  0.80921631
   0.30149712  0.60314199  0.40414689
   0.85526932  0.73079547  0.60079840
   0.46426605  0.93006416  0.40480740
   0.19149462  0.31952150 -0.00006842
   0.27481596  0.52932082  0.79907107
   0.20347895  0.38868181  0.59796091
   0.04973010  0.15177309  0.20703095
   0.76416185  0.52310262  0.80691190
   0.68288309  0.41266706  0.60826286
   0.60100979  0.21099175  0.79368924
   0.54725370  0.06929469  0.61260180
   0.33357472  0.64221863  0.00026721
   0.22815710  0.47140857  0.19540588
Nb - Mo - Ta - Ti - V SQS               
           1
    -3.162894   -3.117512   -3.175516
     1.489392    1.561485   -7.849859
     7.889843   -7.870082   -1.493748
   Nb   Mo   Ta   Ti   V 
   5   6   6   6   6
Direct configuration=    20
   0.95527164  0.93582427  0.39688943
   0.62957916  0.26692262  0.40073717
   0.00587421 -0.00022199  0.00166643
   0.09802035  0.20958378  0.79462882
   0.04010689  0.06791310  0.59960103
   0.91071077  0.79453498  0.20036560
   0.80396765  0.59420791  0.39849814
   0.72886443  0.46883553  0.19688206
   0.66880977  0.34306070 -0.00550554
   0.37300756  0.72445313  0.60482441
   0.13120528  0.27462636  0.40019958
   0.82590314  0.67554213  0.00259059
   0.92481450  0.87546791  0.79891573
   0.56094924  0.12805814  0.18212544
   0.40944411  0.79860519  0.18747833
   0.43594224  0.85957398  0.80923834
   0.30149571  0.60317260  0.40415155
   0.85520206  0.73083083  0.60081604
   0.46422441  0.93009316  0.40483793
   0.19153274  0.31944948 -0.00007773
   0.27480196  0.52930969  0.79906772
   0.20345429  0.38871081  0.59792800
   0.04976770  0.15175960  0.20704593
   0.76411981  0.52311425  0.80690721
   0.68286506  0.41269839  0.60823419
   0.60101567  0.21100791  0.79365519
   0.54726520  0.06933310  0.61260318
   0.33362991  0.64215159  0.00029647
   0.22815452  0.47138083  0.19539874
Nb - Mo - Ta - Ti - V SQS               
           1
    -3.163160   -3.117717   -3.175779
     1.489294    1.561701   -7.850401
     7.890478   -7.870875   -1.493573
   Nb   Mo   Ta   Ti   V 
   5   6   6   6   6
Direct configuration=    21
   0.95526290  0.93582964  0.39689188
   0.62957807  0.26692952  0.40073806
   0.00591183 -0.00023039  0.00167430
   0.09802518  0.20959947  0.79461484
   0.04010076  0.06791514  0.59960936
   0.91073803  0.79453449  0.20037737
   0.80394563  0.59420723  0.39850422
   0.72887383  0.46881772  0.19687056
   0.66881880  0.34305652 -0.00551367
   0.37300763  0.72445726  0.60482186
   0.13118859  0.27462983  0.40018453
   0.82588561  0.67552157  0.00260335
   0.92483727  0.87547817  0.79891992
   0.56095606  0.12805079  0.18212440
   0.40943166  0.79859641  0.18747613
   0.43593048  0.85958423  0.80924578
   0.30149524  0.60318294  0.40415313
   0.85517935  0.73084277  0.60082200
   0.46421036  0.93010295  0.40484824
   0.19154562  0.31942516 -0.00008088
   0.27479723  0.52930593  0.79906658
   0.20344596  0.38872061  0.59791689
   0.04978039  0.15175504  0.20705099
   0.76410562  0.52311817  0.80690563
   0.68285897  0.41270897  0.60822451
   0.60101766  0.21101337  0.79364369
   0.54726908  0.06934607  0.61260365
   0.33364855  0.64212896  0.00030635
   0.22815365  0.47137146  0.19539633
