  29  29   0   0
  0.1679057E+02  0.5525242E-09  0.8287863E-09  0.1139058E-08  0.5000000E-15
  1.000000000000000E-004
  CAR 
 SQS with 1 vacancy for VFE and VRV      
     12.04357222    -50.30546001  301      6.69074268      1.00000000
    -50.305  0.0000E+00  0.0000E+00
    -50.098  0.0000E+00  0.0000E+00
    -49.890  0.0000E+00  0.0000E+00
    -49.682  0.0000E+00  0.0000E+00
    -49.474  0.0000E+00  0.0000E+00
    -49.266 -0.4605E-35 -0.9572E-36
    -49.058 -0.1864E-27 -0.3874E-28
    -48.851 -0.8299E-21 -0.1725E-21
    -48.643 -0.4107E-15 -0.8535E-16
    -48.435 -0.2330E-10 -0.4843E-11
    -48.227 -0.1479E-06 -0.3074E-07
    -48.019 -0.1010E-03 -0.2101E-04
    -47.811 -0.6392E-02 -0.1349E-02
    -47.604  0.7087E-02  0.1236E-03
    -47.396  0.3380E+00  0.7038E-01
    -47.188  0.4847E+00  0.1711E+00
    -46.980  0.3357E+00  0.2409E+00
    -46.772  0.1581E-02  0.2412E+00
    -46.565 -0.5806E-02  0.2400E+00
    -46.357 -0.8403E-04  0.2400E+00
    -46.149 -0.1186E-06  0.2400E+00
    -45.941 -0.1858E-10  0.2400E+00
    -45.733 -0.3248E-15  0.2400E+00
    -45.525  0.0000E+00  0.2400E+00
    -45.318  0.0000E+00  0.2400E+00
    -45.110  0.0000E+00  0.2400E+00
    -44.902  0.0000E+00  0.2400E+00
    -44.694  0.0000E+00  0.2400E+00
    -44.486  0.0000E+00  0.2400E+00
    -44.278  0.0000E+00  0.2400E+00
    -44.071  0.0000E+00  0.2400E+00
    -43.863  0.0000E+00  0.2400E+00
    -43.655  0.0000E+00  0.2400E+00
    -43.447  0.0000E+00  0.2400E+00
    -43.239  0.0000E+00  0.2400E+00
    -43.031  0.0000E+00  0.2400E+00
    -42.824  0.0000E+00  0.2400E+00
    -42.616  0.0000E+00  0.2400E+00
    -42.408  0.0000E+00  0.2400E+00
    -42.200  0.0000E+00  0.2400E+00
    -41.992  0.0000E+00  0.2400E+00
    -41.784  0.0000E+00  0.2400E+00
    -41.577  0.0000E+00  0.2400E+00
    -41.369  0.0000E+00  0.2400E+00
    -41.161  0.0000E+00  0.2400E+00
    -40.953  0.0000E+00  0.2400E+00
    -40.745  0.0000E+00  0.2400E+00
    -40.537  0.0000E+00  0.2400E+00
    -40.330  0.0000E+00  0.2400E+00
    -40.122  0.0000E+00  0.2400E+00
    -39.914  0.0000E+00  0.2400E+00
    -39.706  0.0000E+00  0.2400E+00
    -39.498  0.0000E+00  0.2400E+00
    -39.290  0.0000E+00  0.2400E+00
    -39.083  0.0000E+00  0.2400E+00
    -38.875  0.0000E+00  0.2400E+00
    -38.667  0.0000E+00  0.2400E+00
    -38.459  0.0000E+00  0.2400E+00
    -38.251  0.0000E+00  0.2400E+00
    -38.043  0.0000E+00  0.2400E+00
    -37.836  0.0000E+00  0.2400E+00
    -37.628  0.0000E+00  0.2400E+00
    -37.420  0.0000E+00  0.2400E+00
    -37.212  0.0000E+00  0.2400E+00
    -37.004  0.0000E+00  0.2400E+00
    -36.797  0.0000E+00  0.2400E+00
    -36.589  0.0000E+00  0.2400E+00
    -36.381  0.0000E+00  0.2400E+00
    -36.173  0.0000E+00  0.2400E+00
    -35.965  0.0000E+00  0.2400E+00
    -35.757  0.0000E+00  0.2400E+00
    -35.550  0.0000E+00  0.2400E+00
    -35.342  0.0000E+00  0.2400E+00
    -35.134  0.0000E+00  0.2400E+00
    -34.926  0.0000E+00  0.2400E+00
    -34.718  0.0000E+00  0.2400E+00
    -34.510  0.0000E+00  0.2400E+00
    -34.303  0.0000E+00  0.2400E+00
    -34.095  0.0000E+00  0.2400E+00
    -33.887  0.0000E+00  0.2400E+00
    -33.679  0.0000E+00  0.2400E+00
    -33.471  0.0000E+00  0.2400E+00
    -33.263  0.0000E+00  0.2400E+00
    -33.056  0.0000E+00  0.2400E+00
    -32.848  0.0000E+00  0.2400E+00
    -32.640  0.0000E+00  0.2400E+00
    -32.432  0.0000E+00  0.2400E+00
    -32.224  0.0000E+00  0.2400E+00
    -32.016  0.0000E+00  0.2400E+00
    -31.809  0.0000E+00  0.2400E+00
    -31.601  0.0000E+00  0.2400E+00
    -31.393  0.0000E+00  0.2400E+00
    -31.185  0.0000E+00  0.2400E+00
    -30.977  0.0000E+00  0.2400E+00
    -30.769  0.0000E+00  0.2400E+00
    -30.562  0.0000E+00  0.2400E+00
    -30.354  0.0000E+00  0.2400E+00
    -30.146  0.0000E+00  0.2400E+00
    -29.938  0.0000E+00  0.2400E+00
    -29.730  0.0000E+00  0.2400E+00
    -29.522  0.0000E+00  0.2400E+00
    -29.315  0.0000E+00  0.2400E+00
    -29.107  0.0000E+00  0.2400E+00
    -28.899  0.0000E+00  0.2400E+00
    -28.691  0.0000E+00  0.2400E+00
    -28.483  0.0000E+00  0.2400E+00
    -28.275  0.0000E+00  0.2400E+00
    -28.068  0.0000E+00  0.2400E+00
    -27.860  0.0000E+00  0.2400E+00
    -27.652  0.0000E+00  0.2400E+00
    -27.444  0.0000E+00  0.2400E+00
    -27.236  0.0000E+00  0.2400E+00
    -27.028  0.0000E+00  0.2400E+00
    -26.821  0.0000E+00  0.2400E+00
    -26.613  0.0000E+00  0.2400E+00
    -26.405  0.0000E+00  0.2400E+00
    -26.197  0.0000E+00  0.2400E+00
    -25.989  0.0000E+00  0.2400E+00
    -25.782 -0.2109E-30  0.2400E+00
    -25.574 -0.1788E-23  0.2400E+00
    -25.366 -0.1715E-17  0.2400E+00
    -25.158 -0.1785E-12  0.2400E+00
    -24.950 -0.2129E-08  0.2400E+00
    -24.742 -0.2848E-05  0.2400E+00
    -24.535 -0.4381E-03  0.2399E+00
    -24.327 -0.6530E-02  0.2386E+00
    -24.119  0.4432E-01  0.2478E+00
    -23.911  0.2258E+00  0.2947E+00
    -23.703  0.4574E+00  0.3897E+00
    -23.495  0.8532E+00  0.5671E+00
    -23.288  0.9108E+00  0.7564E+00
    -23.080  0.6900E+00  0.8998E+00
    -22.872  0.2320E+00  0.9480E+00
    -22.664  0.5764E-01  0.9600E+00
    -22.456  0.1682E-02  0.9603E+00
    -22.248 -0.1437E-02  0.9600E+00
    -22.041 -0.4072E-04  0.9600E+00
    -21.833 -0.1046E-06  0.9600E+00
    -21.625 -0.2799E-10  0.9600E+00
    -21.417 -0.8120E-15  0.9600E+00
    -21.209  0.0000E+00  0.9600E+00
    -21.001  0.0000E+00  0.9600E+00
    -20.794  0.0000E+00  0.9600E+00
    -20.586  0.0000E+00  0.9600E+00
    -20.378  0.0000E+00  0.9600E+00
    -20.170  0.0000E+00  0.9600E+00
    -19.962  0.0000E+00  0.9600E+00
    -19.754  0.0000E+00  0.9600E+00
    -19.547  0.0000E+00  0.9600E+00
    -19.339  0.0000E+00  0.9600E+00
    -19.131  0.0000E+00  0.9600E+00
    -18.923  0.0000E+00  0.9600E+00
    -18.715  0.0000E+00  0.9600E+00
    -18.507  0.0000E+00  0.9600E+00
    -18.300  0.0000E+00  0.9600E+00
    -18.092  0.0000E+00  0.9600E+00
    -17.884  0.0000E+00  0.9600E+00
    -17.676  0.0000E+00  0.9600E+00
    -17.468  0.0000E+00  0.9600E+00
    -17.260  0.0000E+00  0.9600E+00
    -17.053  0.0000E+00  0.9600E+00
    -16.845  0.0000E+00  0.9600E+00
    -16.637  0.0000E+00  0.9600E+00
    -16.429  0.0000E+00  0.9600E+00
    -16.221  0.0000E+00  0.9600E+00
    -16.013  0.0000E+00  0.9600E+00
    -15.806  0.0000E+00  0.9600E+00
    -15.598  0.0000E+00  0.9600E+00
    -15.390  0.0000E+00  0.9600E+00
    -15.182  0.0000E+00  0.9600E+00
    -14.974  0.0000E+00  0.9600E+00
    -14.767  0.0000E+00  0.9600E+00
    -14.559  0.0000E+00  0.9600E+00
    -14.351  0.0000E+00  0.9600E+00
    -14.143  0.0000E+00  0.9600E+00
    -13.935  0.0000E+00  0.9600E+00
    -13.727  0.0000E+00  0.9600E+00
    -13.520  0.0000E+00  0.9600E+00
    -13.312  0.0000E+00  0.9600E+00
    -13.104  0.0000E+00  0.9600E+00
    -12.896  0.0000E+00  0.9600E+00
    -12.688  0.0000E+00  0.9600E+00
    -12.480  0.0000E+00  0.9600E+00
    -12.273  0.0000E+00  0.9600E+00
    -12.065  0.0000E+00  0.9600E+00
    -11.857  0.0000E+00  0.9600E+00
    -11.649  0.0000E+00  0.9600E+00
    -11.441  0.0000E+00  0.9600E+00
    -11.233  0.0000E+00  0.9600E+00
    -11.026  0.0000E+00  0.9600E+00
    -10.818  0.0000E+00  0.9600E+00
    -10.610  0.0000E+00  0.9600E+00
    -10.402  0.0000E+00  0.9600E+00
    -10.194  0.0000E+00  0.9600E+00
     -9.986  0.0000E+00  0.9600E+00
     -9.779  0.0000E+00  0.9600E+00
     -9.571  0.0000E+00  0.9600E+00
     -9.363  0.0000E+00  0.9600E+00
     -9.155  0.0000E+00  0.9600E+00
     -8.947  0.0000E+00  0.9600E+00
     -8.739  0.0000E+00  0.9600E+00
     -8.532  0.0000E+00  0.9600E+00
     -8.324  0.0000E+00  0.9600E+00
     -8.116  0.0000E+00  0.9600E+00
     -7.908  0.0000E+00  0.9600E+00
     -7.700  0.0000E+00  0.9600E+00
     -7.492  0.0000E+00  0.9600E+00
     -7.285  0.0000E+00  0.9600E+00
     -7.077  0.0000E+00  0.9600E+00
     -6.869  0.0000E+00  0.9600E+00
     -6.661  0.0000E+00  0.9600E+00
     -6.453  0.0000E+00  0.9600E+00
     -6.245  0.0000E+00  0.9600E+00
     -6.038  0.0000E+00  0.9600E+00
     -5.830  0.0000E+00  0.9600E+00
     -5.622  0.0000E+00  0.9600E+00
     -5.414  0.0000E+00  0.9600E+00
     -5.206  0.0000E+00  0.9600E+00
     -4.998  0.0000E+00  0.9600E+00
     -4.791  0.0000E+00  0.9600E+00
     -4.583  0.0000E+00  0.9600E+00
     -4.375  0.0000E+00  0.9600E+00
     -4.167  0.0000E+00  0.9600E+00
     -3.959  0.0000E+00  0.9600E+00
     -3.752  0.0000E+00  0.9600E+00
     -3.544  0.0000E+00  0.9600E+00
     -3.336  0.0000E+00  0.9600E+00
     -3.128  0.0000E+00  0.9600E+00
     -2.920  0.0000E+00  0.9600E+00
     -2.712  0.0000E+00  0.9600E+00
     -2.505  0.0000E+00  0.9600E+00
     -2.297 -0.4701E-33  0.9600E+00
     -2.089 -0.5831E-26  0.9600E+00
     -1.881 -0.8268E-20  0.9600E+00
     -1.673 -0.1295E-14  0.9600E+00
     -1.465 -0.2365E-10  0.9600E+00
     -1.258 -0.4880E-07  0.9600E+00
     -1.050 -0.1111E-04  0.9600E+00
     -0.842 -0.2389E-03  0.9599E+00
     -0.634  0.8980E-03  0.9601E+00
     -0.426  0.1027E-01  0.9623E+00
     -0.218  0.2407E-01  0.9673E+00
     -0.011  0.3790E-01  0.9751E+00
      0.197  0.3028E-01  0.9814E+00
      0.405  0.2472E-01  0.9866E+00
      0.613  0.5012E-01  0.9970E+00
      0.821  0.6924E-01  0.1011E+01
      1.029  0.5732E-01  0.1023E+01
      1.236  0.4841E-01  0.1033E+01
      1.444  0.9008E-01  0.1052E+01
      1.652  0.7655E-01  0.1068E+01
      1.860  0.1091E+00  0.1091E+01
      2.068  0.1575E+00  0.1123E+01
      2.276  0.2006E+00  0.1165E+01
      2.483  0.3053E+00  0.1229E+01
      2.691  0.3616E+00  0.1304E+01
      2.899  0.4420E+00  0.1396E+01
      3.107  0.5158E+00  0.1503E+01
      3.315  0.5443E+00  0.1616E+01
      3.523  0.5939E+00  0.1739E+01
      3.730  0.6156E+00  0.1867E+01
      3.938  0.6083E+00  0.1994E+01
      4.146  0.5637E+00  0.2111E+01
      4.354  0.5115E+00  0.2217E+01
      4.562  0.5680E+00  0.2335E+01
      4.770  0.6957E+00  0.2480E+01
      4.977  0.7970E+00  0.2645E+01
      5.185  0.8045E+00  0.2813E+01
      5.393  0.7505E+00  0.2969E+01
      5.601  0.7298E+00  0.3120E+01
      5.809  0.7415E+00  0.3274E+01
      6.016  0.7879E+00  0.3438E+01
      6.224  0.8180E+00  0.3608E+01
      6.432  0.8078E+00  0.3776E+01
      6.640  0.7225E+00  0.3926E+01
      6.848  0.6372E+00  0.4059E+01
      7.056  0.5176E+00  0.4166E+01
      7.263  0.3895E+00  0.4247E+01
      7.471  0.3266E+00  0.4315E+01
      7.679  0.3022E+00  0.4378E+01
      7.887  0.3176E+00  0.4444E+01
      8.095  0.3808E+00  0.4523E+01
      8.303  0.4115E+00  0.4608E+01
      8.510  0.3828E+00  0.4688E+01
      8.718  0.2823E+00  0.4747E+01
      8.926  0.1638E+00  0.4781E+01
      9.134  0.7999E-01  0.4797E+01
      9.342  0.1453E-01  0.4800E+01
      9.550 -0.1411E-02  0.4800E+01
      9.757 -0.2350E-03  0.4800E+01
      9.965 -0.2871E-05  0.4800E+01
     10.173 -0.3848E-08  0.4800E+01
     10.381 -0.5822E-12  0.4800E+01
     10.589 -0.1026E-16  0.4800E+01
     10.797  0.0000E+00  0.4800E+01
     11.004  0.0000E+00  0.4800E+01
     11.212  0.0000E+00  0.4800E+01
     11.420  0.0000E+00  0.4800E+01
     11.628  0.0000E+00  0.4800E+01
     11.836  0.0000E+00  0.4800E+01
     12.044  0.0000E+00  0.4800E+01
