   29   29   50    1
  0.1679057E+02  0.5525242E-09  0.8287863E-09  0.1139058E-08  0.5000000E-15
  1.000000000000000E-004
  CAR 
 SQS with 1 vacancy for VFE and VRV      
    198     63    120
 
  0.0000000E+00  0.0000000E+00  0.0000000E+00  0.8000000E-02
    1      -47.471413   1.000000
    2      -47.434757   1.000000
    3      -47.385668   1.000000
    4      -47.197502   1.000000
    5      -47.172029   1.000000
    6      -47.104433   1.000000
    7      -24.129662   1.000000
    8      -23.992490   1.000000
    9      -23.809957   1.000000
   10      -23.707641   1.000000
   11      -23.678316   1.000000
   12      -23.605566   1.000000
   13      -23.569480   1.000000
   14      -23.543043   1.000000
   15      -23.503773   1.000000
   16      -23.409141   1.000000
   17      -23.369354   1.000000
   18      -23.330751   1.000000
   19      -23.288281   1.000000
   20      -23.269537   1.000000
   21      -23.197177   1.000000
   22      -23.141994   1.000000
   23      -23.024073   1.000000
   24      -22.754919   1.000000
   25       -0.609700   1.000000
   26        0.709039   1.000000
   27        1.156775   1.000000
   28        1.953561   1.000000
   29        1.994559   1.000000
   30        2.084254   1.000000
   31        2.264862   1.000000
   32        2.336603   1.000000
   33        2.430527   1.000000
   34        2.488110   1.000000
   35        2.597955   1.000000
   36        2.682319   1.000000
   37        2.823815   1.000000
   38        2.858762   1.000000
   39        2.869097   1.000000
   40        2.984004   1.000000
   41        3.063051   1.000000
   42        3.185054   1.000000
   43        3.250567   1.000000
   44        3.280774   1.000000
   45        3.399705   1.000000
   46        3.487681   1.000000
   47        3.544965   1.000000
   48        3.579535   1.000000
   49        3.606805   1.000000
   50        3.634678   1.000000
   51        3.734192   1.000000
   52        3.802097   1.000000
   53        3.841866   1.000000
   54        3.951482   1.000000
   55        4.097864   1.000000
   56        4.123161   1.000000
   57        4.220855   1.000000
   58        4.420522   1.000000
   59        4.482130   1.000000
   60        4.508742   1.000000
   61        4.580348   1.000000
   62        4.659385   1.000000
   63        4.681434   1.000000
   64        4.772832   1.000000
   65        4.786215   1.000000
   66        4.825704   1.000000
   67        4.893362   1.000000
   68        4.960402   1.000000
   69        4.972911   1.000000
   70        4.997007   1.000000
   71        5.063804   1.000000
   72        5.070005   1.000000
   73        5.159843   1.000000
   74        5.230261   1.000000
   75        5.300425   1.000000
   76        5.442381   1.000000
   77        5.482197   1.000000
   78        5.517165   1.000000
   79        5.667153   1.000000
   80        5.695956   1.000000
   81        5.774577   1.000000
   82        5.871030   1.000000
   83        5.944338   1.000001
   84        5.985660   1.000004
   85        5.998988   1.000006
   86        6.045371   1.000025
   87        6.147231   1.000415
   88        6.231620   1.002747
   89        6.250535   1.003960
   90        6.311501   1.011017
   91        6.323927   1.013156
   92        6.437248   1.035193
   93        6.484102   1.028239
   94        6.559615   0.943422
   95        6.670727   0.584225
   96        6.682623   0.534324
   97        6.788519   0.136070
   98        6.841672   0.022482
   99        6.932596  -0.035420
  100        7.022675  -0.020336
  101        7.101136  -0.006735
  102        7.181950  -0.001406
  103        7.281008  -0.000122
  104        7.444020  -0.000001
  105        7.486118  -0.000000
  106        7.625831  -0.000000
  107        7.693793  -0.000000
  108        7.908698  -0.000000
  109        8.027477  -0.000000
  110        8.328778  -0.000000
  111        8.400780  -0.000000
  112        8.549214  -0.000000
  113        8.598516  -0.000000
  114        8.662931  -0.000000
  115        8.693860  -0.000000
  116        8.869622  -0.000000
  117        8.963071  -0.000000
  118        8.986129  -0.000000
  119        9.094408  -0.000000
  120        9.104615  -0.000000
 
  0.2000000E+00 -0.1387779E-16  0.0000000E+00  0.1600000E-01
    1      -47.470588   1.000000
    2      -47.434291   1.000000
    3      -47.376502   1.000000
    4      -47.197090   1.000000
    5      -47.171921   1.000000
    6      -47.114154   1.000000
    7      -24.027103   1.000000
    8      -23.981157   1.000000
    9      -23.805885   1.000000
   10      -23.703634   1.000000
   11      -23.679291   1.000000
   12      -23.612782   1.000000
   13      -23.574666   1.000000
   14      -23.534967   1.000000
   15      -23.504237   1.000000
   16      -23.419915   1.000000
   17      -23.370117   1.000000
   18      -23.334558   1.000000
   19      -23.296606   1.000000
   20      -23.273413   1.000000
   21      -23.202697   1.000000
   22      -23.148260   1.000000
   23      -23.025373   1.000000
   24      -22.887794   1.000000
   25       -0.279315   1.000000
   26        0.993270   1.000000
   27        1.433206   1.000000
   28        2.083865   1.000000
   29        2.222356   1.000000
   30        2.280306   1.000000
   31        2.468419   1.000000
   32        2.512910   1.000000
   33        2.575164   1.000000
   34        2.728725   1.000000
   35        2.774220   1.000000
   36        2.915171   1.000000
   37        2.986584   1.000000
   38        3.034504   1.000000
   39        3.054370   1.000000
   40        3.127850   1.000000
   41        3.233852   1.000000
   42        3.298055   1.000000
   43        3.338902   1.000000
   44        3.400646   1.000000
   45        3.467332   1.000000
   46        3.571993   1.000000
   47        3.659612   1.000000
   48        3.746290   1.000000
   49        3.779737   1.000000
   50        3.813251   1.000000
   51        3.895932   1.000000
   52        3.946896   1.000000
   53        4.011665   1.000000
   54        4.068018   1.000000
   55        4.160797   1.000000
   56        4.258488   1.000000
   57        4.300097   1.000000
   58        4.478365   1.000000
   59        4.504288   1.000000
   60        4.622301   1.000000
   61        4.657308   1.000000
   62        4.695647   1.000000
   63        4.760571   1.000000
   64        4.800723   1.000000
   65        4.881720   1.000000
   66        4.911117   1.000000
   67        5.019727   1.000000
   68        5.060329   1.000000
   69        5.106423   1.000000
   70        5.124033   1.000000
   71        5.148852   1.000000
   72        5.193731   1.000000
   73        5.213591   1.000000
   74        5.295486   1.000000
   75        5.386078   1.000000
   76        5.426508   1.000000
   77        5.469908   1.000000
   78        5.557625   1.000000
   79        5.587901   1.000000
   80        5.610856   1.000000
   81        5.706884   1.000000
   82        5.767640   1.000000
   83        5.848701   1.000000
   84        5.907318   1.000000
   85        5.994056   1.000005
   86        6.042843   1.000023
   87        6.094206   1.000103
   88        6.134923   1.000304
   89        6.210799   1.001791
   90        6.259956   1.004712
   91        6.295491   1.008626
   92        6.335060   1.015275
   93        6.391925   1.027914
   94        6.415412   1.032591
   95        6.484195   1.028200
   96        6.566255   0.929828
   97        6.675535   0.564146
   98        6.733308   0.324337
   99        6.790731   0.129935
  100        6.821736   0.056842
  101        6.864113  -0.005228
  102        6.951276  -0.034618
  103        7.001581  -0.025185
  104        7.097970  -0.007101
  105        7.236312  -0.000394
  106        7.331657  -0.000028
  107        7.445871  -0.000001
  108        7.625104  -0.000000
  109        7.745520  -0.000000
  110        7.864489  -0.000000
  111        7.905037  -0.000000
  112        8.008460  -0.000000
  113        8.094482  -0.000000
  114        8.179985  -0.000000
  115        8.311172  -0.000000
  116        8.390858  -0.000000
  117        8.507320  -0.000000
  118        8.536025  -0.000000
  119        8.579225  -0.000000
  120        8.665641  -0.000000
 
  0.4000000E+00 -0.2775558E-16  0.0000000E+00  0.1600000E-01
    1      -47.469251   1.000000
    2      -47.433566   1.000000
    3      -47.359954   1.000000
    4      -47.196562   1.000000
    5      -47.171768   1.000000
    6      -47.131409   1.000000
    7      -24.000501   1.000000
    8      -23.809219   1.000000
    9      -23.738646   1.000000
   10      -23.689328   1.000000
   11      -23.652212   1.000000
   12      -23.623253   1.000000
   13      -23.582290   1.000000
   14      -23.523394   1.000000
   15      -23.500818   1.000000
   16      -23.438233   1.000000
   17      -23.371423   1.000000
   18      -23.340607   1.000000
   19      -23.314473   1.000000
   20      -23.282177   1.000000
   21      -23.244159   1.000000
   22      -23.187458   1.000000
   23      -23.154512   1.000000
   24      -23.022159   1.000000
   25        0.585614   1.000000
   26        1.513705   1.000000
   27        1.989612   1.000000
   28        2.086741   1.000000
   29        2.394250   1.000000
   30        2.565714   1.000000
   31        2.716550   1.000000
   32        2.828719   1.000000
   33        2.875005   1.000000
   34        3.019148   1.000000
   35        3.116337   1.000000
   36        3.219272   1.000000
   37        3.281244   1.000000
   38        3.333696   1.000000
   39        3.422874   1.000000
   40        3.479617   1.000000
   41        3.538317   1.000000
   42        3.560623   1.000000
   43        3.650524   1.000000
   44        3.689750   1.000000
   45        3.746988   1.000000
   46        3.809559   1.000000
   47        3.880219   1.000000
   48        3.972810   1.000000
   49        4.048893   1.000000
   50        4.090414   1.000000
   51        4.100975   1.000000
   52        4.205926   1.000000
   53        4.262981   1.000000
   54        4.341069   1.000000
   55        4.391935   1.000000
   56        4.481719   1.000000
   57        4.527574   1.000000
   58        4.581200   1.000000
   59        4.619844   1.000000
   60        4.671703   1.000000
   61        4.727431   1.000000
   62        4.758973   1.000000
   63        4.837191   1.000000
   64        4.883824   1.000000
   65        4.947937   1.000000
   66        4.974637   1.000000
   67        5.010689   1.000000
   68        5.095303   1.000000
   69        5.140464   1.000000
   70        5.162384   1.000000
   71        5.197361   1.000000
   72        5.275379   1.000000
   73        5.309572   1.000000
   74        5.369074   1.000000
   75        5.433671   1.000000
   76        5.476022   1.000000
   77        5.519100   1.000000
   78        5.581522   1.000000
   79        5.640060   1.000000
   80        5.674454   1.000000
   81        5.728471   1.000000
   82        5.752994   1.000000
   83        5.845745   1.000000
   84        5.873170   1.000000
   85        5.912708   1.000000
   86        5.957035   1.000001
   87        6.046593   1.000026
   88        6.087623   1.000086
   89        6.114110   1.000177
   90        6.174499   1.000799
   91        6.221804   1.002253
   92        6.258821   1.004616
   93        6.298968   1.009110
   94        6.343860   1.017074
   95        6.437328   1.035197
   96        6.453153   1.035239
   97        6.514396   1.008105
   98        6.537220   0.981291
   99        6.600235   0.842927
  100        6.633714   0.730775
  101        6.693378   0.488850
  102        6.749919   0.261344
  103        6.797569   0.111735
  104        6.850742   0.009953
  105        6.896382  -0.027811
  106        6.969069  -0.032074
  107        7.067986  -0.011344
  108        7.107667  -0.006024
  109        7.189585  -0.001188
  110        7.292321  -0.000089
  111        7.380816  -0.000006
  112        7.555543  -0.000000
  113        7.633766  -0.000000
  114        7.704239  -0.000000
  115        7.788221  -0.000000
  116        7.863334  -0.000000
  117        7.988865  -0.000000
  118        8.168762  -0.000000
  119        8.210435  -0.000000
  120        8.315952  -0.000000
 
  0.0000000E+00  0.2000000E+00  0.1387779E-16  0.1600000E-01
    1      -47.471289   1.000000
    2      -47.434758   1.000000
    3      -47.385662   1.000000
    4      -47.197506   1.000000
    5      -47.172151   1.000000
    6      -47.104430   1.000000
    7      -24.129667   1.000000
    8      -23.990892   1.000000
    9      -23.806160   1.000000
   10      -23.707421   1.000000
   11      -23.678247   1.000000
   12      -23.605662   1.000000
   13      -23.569480   1.000000
   14      -23.543209   1.000000
   15      -23.503682   1.000000
   16      -23.409180   1.000000
   17      -23.369396   1.000000
   18      -23.330657   1.000000
   19      -23.288316   1.000000
   20      -23.269668   1.000000
   21      -23.197269   1.000000
   22      -23.148001   1.000000
   23      -23.024653   1.000000
   24      -22.754925   1.000000
   25       -0.474704   1.000000
   26        0.781134   1.000000
   27        1.197041   1.000000
   28        1.637358   1.000000
   29        1.948505   1.000000
   30        2.101681   1.000000
   31        2.274696   1.000000
   32        2.386643   1.000000
   33        2.435117   1.000000
   34        2.506971   1.000000
   35        2.629872   1.000000
   36        2.732123   1.000000
   37        2.759248   1.000000
   38        2.801215   1.000000
   39        2.841585   1.000000
   40        2.966135   1.000000
   41        3.032441   1.000000
   42        3.115571   1.000000
   43        3.195423   1.000000
   44        3.297179   1.000000
   45        3.381047   1.000000
   46        3.465558   1.000000
   47        3.564227   1.000000
   48        3.606061   1.000000
   49        3.684854   1.000000
   50        3.733506   1.000000
   51        3.783228   1.000000
   52        3.832718   1.000000
   53        3.882626   1.000000
   54        4.039301   1.000000
   55        4.115399   1.000000
   56        4.178383   1.000000
   57        4.265057   1.000000
   58        4.428516   1.000000
   59        4.481700   1.000000
   60        4.530884   1.000000
   61        4.618478   1.000000
   62        4.657273   1.000000
   63        4.745039   1.000000
   64        4.791822   1.000000
   65        4.837989   1.000000
   66        4.880771   1.000000
   67        4.917490   1.000000
   68        4.968804   1.000000
   69        4.990545   1.000000
   70        5.030081   1.000000
   71        5.102056   1.000000
   72        5.166654   1.000000
   73        5.212785   1.000000
   74        5.260036   1.000000
   75        5.385520   1.000000
   76        5.409128   1.000000
   77        5.507842   1.000000
   78        5.587007   1.000000
   79        5.669068   1.000000
   80        5.715138   1.000000
   81        5.812358   1.000000
   82        5.850857   1.000000
   83        5.947529   1.000001
   84        5.955369   1.000001
   85        6.004838   1.000007
   86        6.058253   1.000037
   87        6.084941   1.000079
   88        6.113140   1.000172
   89        6.164903   1.000638
   90        6.232945   1.002821
   91        6.265971   1.005250
   92        6.345424   1.017404
   93        6.391364   1.027790
   94        6.467074   1.033450
   95        6.498923   1.020345
   96        6.600312   0.842699
   97        6.686104   0.519622
   98        6.822009   0.056306
   99        6.906845  -0.031591
  100        7.055797  -0.013479
  101        7.125574  -0.004376
  102        7.241581  -0.000345
  103        7.338538  -0.000023
  104        7.406793  -0.000003
  105        7.538145  -0.000000
  106        7.636199  -0.000000
  107        7.768172  -0.000000
  108        7.798226  -0.000000
  109        7.928241  -0.000000
  110        8.074354  -0.000000
  111        8.128263  -0.000000
  112        8.223460  -0.000000
  113        8.330147  -0.000000
  114        8.576696  -0.000000
  115        8.623908  -0.000000
  116        8.731493  -0.000000
  117        8.768108  -0.000000
  118        8.888721  -0.000000
  119        8.959146  -0.000000
  120        8.974067  -0.000000
 
  0.2000000E+00  0.2000000E+00 -0.4857226E-16  0.1600000E-01
    1      -47.470706   1.000000
    2      -47.434291   1.000000
    3      -47.376506   1.000000
    4      -47.197089   1.000000
    5      -47.171803   1.000000
    6      -47.114157   1.000000
    7      -24.027456   1.000000
    8      -23.982361   1.000000
    9      -23.809578   1.000000
   10      -23.703835   1.000000
   11      -23.679315   1.000000
   12      -23.612790   1.000000
   13      -23.574670   1.000000
   14      -23.534863   1.000000
   15      -23.504322   1.000000
   16      -23.419848   1.000000
   17      -23.370083   1.000000
   18      -23.334534   1.000000
   19      -23.296549   1.000000
   20      -23.273303   1.000000
   21      -23.202566   1.000000
   22      -23.142461   1.000000
   23      -23.024839   1.000000
   24      -22.887778   1.000000
   25       -0.279837   1.000000
   26        0.960888   1.000000
   27        1.444175   1.000000
   28        2.022688   1.000000
   29        2.183924   1.000000
   30        2.250188   1.000000
   31        2.344734   1.000000
   32        2.499650   1.000000
   33        2.577663   1.000000
   34        2.707047   1.000000
   35        2.766329   1.000000
   36        2.843621   1.000000
   37        2.961584   1.000000
   38        3.008891   1.000000
   39        3.041910   1.000000
   40        3.104785   1.000000
   41        3.240940   1.000000
   42        3.264274   1.000000
   43        3.351271   1.000000
   44        3.424040   1.000000
   45        3.489026   1.000000
   46        3.596094   1.000000
   47        3.697555   1.000000
   48        3.741888   1.000000
   49        3.785481   1.000000
   50        3.825286   1.000000
   51        3.905165   1.000000
   52        3.933276   1.000000
   53        4.049485   1.000000
   54        4.104531   1.000000
   55        4.186174   1.000000
   56        4.288365   1.000000
   57        4.347630   1.000000
   58        4.457198   1.000000
   59        4.496962   1.000000
   60        4.562053   1.000000
   61        4.631274   1.000000
   62        4.728260   1.000000
   63        4.758418   1.000000
   64        4.832953   1.000000
   65        4.860950   1.000000
   66        4.919659   1.000000
   67        4.964464   1.000000
   68        4.982310   1.000000
   69        5.025655   1.000000
   70        5.092170   1.000000
   71        5.130051   1.000000
   72        5.171437   1.000000
   73        5.214822   1.000000
   74        5.268745   1.000000
   75        5.367509   1.000000
   76        5.445379   1.000000
   77        5.478503   1.000000
   78        5.526962   1.000000
   79        5.573078   1.000000
   80        5.621410   1.000000
   81        5.698019   1.000000
   82        5.738396   1.000000
   83        5.837983   1.000000
   84        5.925271   1.000000
   85        5.951520   1.000001
   86        5.981698   1.000003
   87        6.070886   1.000053
   88        6.113748   1.000175
   89        6.177126   1.000850
   90        6.264153   1.005083
   91        6.280078   1.006704
   92        6.403278   1.030331
   93        6.438755   1.035276
   94        6.474876   1.031522
   95        6.530722   0.990074
   96        6.608365   0.817946
   97        6.676475   0.560201
   98        6.782597   0.153086
   99        6.832577   0.036966
  100        6.913026  -0.033161
  101        6.960430  -0.033477
  102        7.006274  -0.024100
  103        7.077628  -0.009824
  104        7.163141  -0.002098
  105        7.200115  -0.000937
  106        7.298805  -0.000074
  107        7.397145  -0.000004
  108        7.506886  -0.000000
  109        7.735049  -0.000000
  110        7.783668  -0.000000
  111        7.866965  -0.000000
  112        8.077389  -0.000000
  113        8.303367  -0.000000
  114        8.429010  -0.000000
  115        8.493951  -0.000000
  116        8.629816  -0.000000
  117        8.767408  -0.000000
  118        8.901235  -0.000000
  119        8.948541  -0.000000
  120        8.993244  -0.000000
 
  0.4000000E+00  0.2000000E+00 -0.5551115E-16  0.1600000E-01
    1      -47.469447   1.000000
    2      -47.433564   1.000000
    3      -47.359962   1.000000
    4      -47.196559   1.000000
    5      -47.171576   1.000000
    6      -47.131413   1.000000
    7      -24.002773   1.000000
    8      -23.815084   1.000000
    9      -23.739420   1.000000
   10      -23.689594   1.000000
   11      -23.652143   1.000000
   12      -23.623235   1.000000
   13      -23.582290   1.000000
   14      -23.523325   1.000000
   15      -23.500849   1.000000
   16      -23.438104   1.000000
   17      -23.371374   1.000000
   18      -23.340608   1.000000
   19      -23.314366   1.000000
   20      -23.282060   1.000000
   21      -23.244113   1.000000
   22      -23.186175   1.000000
   23      -23.145759   1.000000
   24      -23.021443   1.000000
   25        0.481798   1.000000
   26        1.456826   1.000000
   27        1.903232   1.000000
   28        2.019300   1.000000
   29        2.292612   1.000000
   30        2.394671   1.000000
   31        2.723687   1.000000
   32        2.905783   1.000000
   33        2.946730   1.000000
   34        3.090544   1.000000
   35        3.126956   1.000000
   36        3.291466   1.000000
   37        3.336535   1.000000
   38        3.367500   1.000000
   39        3.419414   1.000000
   40        3.474927   1.000000
   41        3.509848   1.000000
   42        3.565465   1.000000
   43        3.624421   1.000000
   44        3.704618   1.000000
   45        3.766139   1.000000
   46        3.786527   1.000000
   47        3.873180   1.000000
   48        3.968721   1.000000
   49        4.025668   1.000000
   50        4.071458   1.000000
   51        4.089935   1.000000
   52        4.131315   1.000000
   53        4.172091   1.000000
   54        4.262913   1.000000
   55        4.328271   1.000000
   56        4.398338   1.000000
   57        4.468565   1.000000
   58        4.529932   1.000000
   59        4.573322   1.000000
   60        4.675020   1.000000
   61        4.711678   1.000000
   62        4.791309   1.000000
   63        4.860773   1.000000
   64        4.934066   1.000000
   65        4.962617   1.000000
   66        4.991086   1.000000
   67        5.042438   1.000000
   68        5.110618   1.000000
   69        5.135401   1.000000
   70        5.174087   1.000000
   71        5.225170   1.000000
   72        5.284578   1.000000
   73        5.349323   1.000000
   74        5.375621   1.000000
   75        5.415898   1.000000
   76        5.473287   1.000000
   77        5.533241   1.000000
   78        5.567401   1.000000
   79        5.628223   1.000000
   80        5.658585   1.000000
   81        5.738568   1.000000
   82        5.787291   1.000000
   83        5.832283   1.000000
   84        5.867012   1.000000
   85        5.899013   1.000000
   86        5.947403   1.000001
   87        5.970734   1.000002
   88        6.035186   1.000018
   89        6.086187   1.000082
   90        6.139313   1.000340
   91        6.195168   1.001278
   92        6.233497   1.002852
   93        6.260655   1.004773
   94        6.316786   1.011897
   95        6.344614   1.017233
   96        6.398191   1.029276
   97        6.477658   1.030652
   98        6.496061   1.022143
   99        6.538453   0.979517
  100        6.562845   0.936947
  101        6.651696   0.661782
  102        6.749015   0.264650
  103        6.790155   0.131519
  104        6.835092   0.032763
  105        6.904121  -0.030749
  106        7.006230  -0.024110
  107        7.124677  -0.004449
  108        7.304077  -0.000064
  109        7.358380  -0.000012
  110        7.440298  -0.000001
  111        7.604903  -0.000000
  112        7.763801  -0.000000
  113        7.905467  -0.000000
  114        7.963834  -0.000000
  115        8.016054  -0.000000
  116        8.196169  -0.000000
  117        8.228197  -0.000000
  118        8.364747  -0.000000
  119        8.406139  -0.000000
  120        8.471251  -0.000000
 
 -0.4000000E+00  0.2000000E+00 -0.3908332E-16  0.1600000E-01
    1      -47.469247   1.000000
    2      -47.433567   1.000000
    3      -47.359954   1.000000
    4      -47.196563   1.000000
    5      -47.171770   1.000000
    6      -47.131408   1.000000
    7      -24.000477   1.000000
    8      -23.809188   1.000000
    9      -23.738632   1.000000
   10      -23.689307   1.000000
   11      -23.652225   1.000000
   12      -23.623301   1.000000
   13      -23.582287   1.000000
   14      -23.523423   1.000000
   15      -23.500818   1.000000
   16      -23.438229   1.000000
   17      -23.371422   1.000000
   18      -23.340546   1.000000
   19      -23.314474   1.000000
   20      -23.282176   1.000000
   21      -23.244145   1.000000
   22      -23.187453   1.000000
   23      -23.154621   1.000000
   24      -23.022179   1.000000
   25        0.843818   1.000000
   26        1.422300   1.000000
   27        1.804662   1.000000
   28        2.101457   1.000000
   29        2.273394   1.000000
   30        2.499931   1.000000
   31        2.602514   1.000000
   32        2.832087   1.000000
   33        2.989381   1.000000
   34        3.017803   1.000000
   35        3.137306   1.000000
   36        3.184914   1.000000
   37        3.292238   1.000000
   38        3.311302   1.000000
   39        3.378460   1.000000
   40        3.420469   1.000000
   41        3.503324   1.000000
   42        3.557164   1.000000
   43        3.641142   1.000000
   44        3.697684   1.000000
   45        3.722840   1.000000
   46        3.838943   1.000000
   47        3.917738   1.000000
   48        4.002467   1.000000
   49        4.025130   1.000000
   50        4.114268   1.000000
   51        4.203139   1.000000
   52        4.246072   1.000000
   53        4.327687   1.000000
   54        4.376487   1.000000
   55        4.436452   1.000000
   56        4.461715   1.000000
   57        4.524220   1.000000
   58        4.626357   1.000000
   59        4.660362   1.000000
   60        4.696846   1.000000
   61        4.762231   1.000000
   62        4.804618   1.000000
   63        4.843053   1.000000
   64        4.896523   1.000000
   65        4.917549   1.000000
   66        4.969074   1.000000
   67        4.995769   1.000000
   68        5.053404   1.000000
   69        5.136491   1.000000
   70        5.158319   1.000000
   71        5.192796   1.000000
   72        5.238514   1.000000
   73        5.264471   1.000000
   74        5.323524   1.000000
   75        5.380008   1.000000
   76        5.425092   1.000000
   77        5.551657   1.000000
   78        5.584517   1.000000
   79        5.633177   1.000000
   80        5.690419   1.000000
   81        5.743290   1.000000
   82        5.771480   1.000000
   83        5.825293   1.000000
   84        5.887526   1.000000
   85        5.898107   1.000000
   86        5.935043   1.000001
   87        6.032075   1.000016
   88        6.060404   1.000039
   89        6.077473   1.000064
   90        6.165485   1.000647
   91        6.189538   1.001127
   92        6.257933   1.004542
   93        6.303830   1.009820
   94        6.348763   1.018118
   95        6.402655   1.030205
   96        6.454396   1.035156
   97        6.505197   1.015910
   98        6.574144   0.912237
   99        6.627394   0.753724
  100        6.672064   0.578654
  101        6.702785   0.449147
  102        6.740937   0.294845
  103        6.788649   0.135706
  104        6.850875   0.009783
  105        6.969906  -0.031924
  106        6.995168  -0.026655
  107        7.057831  -0.013107
  108        7.087704  -0.008394
  109        7.152385  -0.002612
  110        7.236578  -0.000392
  111        7.371387  -0.000008
  112        7.584495  -0.000000
  113        7.636156  -0.000000
  114        7.779786  -0.000000
  115        7.853778  -0.000000
  116        8.026871  -0.000000
  117        8.180463  -0.000000
  118        8.200247  -0.000000
  119        8.291895  -0.000000
  120        8.363495  -0.000000
 
 -0.2000000E+00  0.2000000E+00  0.1006140E-15  0.1600000E-01
    1      -47.470387   1.000000
    2      -47.434293   1.000000
    3      -47.376493   1.000000
    4      -47.197096   1.000000
    5      -47.172117   1.000000
    6      -47.114148   1.000000
    7      -24.026571   1.000000
    8      -23.979187   1.000000
    9      -23.799570   1.000000
   10      -23.703209   1.000000
   11      -23.679208   1.000000
   12      -23.612905   1.000000
   13      -23.574661   1.000000
   14      -23.535210   1.000000
   15      -23.504083   1.000000
   16      -23.420005   1.000000
   17      -23.370167   1.000000
   18      -23.334439   1.000000
   19      -23.296690   1.000000
   20      -23.273591   1.000000
   21      -23.202976   1.000000
   22      -23.158144   1.000000
   23      -23.026214   1.000000
   24      -22.887807   1.000000
   25       -0.031257   1.000000
   26        1.060002   1.000000
   27        1.423357   1.000000
   28        1.822241   1.000000
   29        2.065159   1.000000
   30        2.398021   1.000000
   31        2.494190   1.000000
   32        2.610470   1.000000
   33        2.663440   1.000000
   34        2.710794   1.000000
   35        2.827172   1.000000
   36        2.871301   1.000000
   37        2.944497   1.000000
   38        2.978045   1.000000
   39        3.040609   1.000000
   40        3.115041   1.000000
   41        3.164714   1.000000
   42        3.202836   1.000000
   43        3.302979   1.000000
   44        3.371153   1.000000
   45        3.499623   1.000000
   46        3.596279   1.000000
   47        3.633914   1.000000