       N       E                     dE             d eps       ncg     rms          rms(c)
DAV:   1     0.215338332325E+04    0.21534E+04   -0.91350E+04 15120   0.175E+03
DAV:   2     0.735225499794E+02   -0.20799E+04   -0.20171E+04 15168   0.518E+02
DAV:   3    -0.299705795853E+03   -0.37323E+03   -0.35514E+03 26312   0.183E+02
DAV:   4    -0.346097029639E+03   -0.46391E+02   -0.42863E+02 23328   0.601E+01
DAV:   5    -0.351261355669E+03   -0.51643E+01   -0.50282E+01 28808   0.219E+01    0.745E+01
DAV:   6    -0.345143525593E+03    0.61178E+01   -0.14252E+02 21304   0.323E+01    0.419E+01
DAV:   7    -0.354154920314E+03   -0.90114E+01   -0.60293E+02 22080   0.110E+02    0.287E+01
DAV:   8    -0.352418661792E+03    0.17363E+01   -0.14238E+02 22464   0.376E+01    0.213E+01
DAV:   9    -0.338631180754E+03    0.13787E+02   -0.27290E+01 22888   0.178E+01    0.152E+01
DAV:  10    -0.333829530263E+03    0.48017E+01   -0.87315E+00 22352   0.846E+00    0.120E+01
DAV:  11    -0.331232386065E+03    0.25971E+01   -0.29398E+00 21376   0.495E+00    0.983E+00
DAV:  12    -0.329460869837E+03    0.17715E+01   -0.22563E+00 21664   0.438E+00    0.675E+00
DAV:  13    -0.328740089320E+03    0.72078E+00   -0.25085E+00 22424   0.447E+00    0.335E+00
DAV:  14    -0.328615549944E+03    0.12454E+00   -0.10719E+00 22184   0.346E+00    0.232E+00
DAV:  15    -0.328565816715E+03    0.49733E-01   -0.89639E-01 23216   0.281E+00    0.143E+00
DAV:  16    -0.328549152779E+03    0.16664E-01   -0.28460E-01 22176   0.157E+00    0.885E-01
DAV:  17    -0.328549895344E+03   -0.74257E-03   -0.12499E-01 23424   0.991E-01    0.101E+00
DAV:  18    -0.328544847512E+03    0.50478E-02   -0.16280E-01 21792   0.107E+00    0.620E-01
DAV:  19    -0.328540863825E+03    0.39837E-02   -0.65971E-02 21944   0.712E-01    0.433E-01
DAV:  20    -0.328539124650E+03    0.17392E-02   -0.24579E-02 19736   0.430E-01    0.212E-01
DAV:  21    -0.328538602487E+03    0.52216E-03   -0.44035E-03 19984   0.193E-01    0.103E-01
DAV:  22    -0.328538458638E+03    0.14385E-03   -0.10654E-03 18624   0.102E-01    0.522E-02
DAV:  23    -0.328538414729E+03    0.43909E-04   -0.31442E-04 13072   0.711E-02
   1 F= -.32853841E+03 E0= -.32853175E+03  d E =-.328538E+03
       N       E                     dE             d eps       ncg     rms          rms(c)
DAV:   1    -0.329388423218E+03   -0.84996E+00   -0.99080E+01 15216   0.393E+01    0.939E+00
DAV:   2    -0.329701385438E+03   -0.31296E+00   -0.13469E+01 22048   0.153E+01    0.652E+00
DAV:   3    -0.329412132307E+03    0.28925E+00   -0.85597E+00 22688   0.888E+00    0.582E+00
DAV:   4    -0.329102330769E+03    0.30980E+00   -0.48301E+00 23160   0.716E+00    0.358E+00
DAV:   5    -0.328928104485E+03    0.17423E+00   -0.21998E+00 22360   0.477E+00    0.209E+00
DAV:   6    -0.328872099035E+03    0.56005E-01   -0.66334E-01 24472   0.247E+00    0.135E+00
DAV:   7    -0.328856045108E+03    0.16054E-01   -0.24768E-01 24368   0.148E+00    0.834E-01
DAV:   8    -0.328855415792E+03    0.62932E-03   -0.67308E-02 22792   0.756E-01    0.626E-01
DAV:   9    -0.328856564404E+03   -0.11486E-02   -0.26443E-02 22552   0.448E-01    0.447E-01
DAV:  10    -0.328859817539E+03   -0.32531E-02   -0.25868E-02 22368   0.463E-01    0.428E-01
DAV:  11    -0.328859623672E+03    0.19387E-03   -0.17053E-02 23008   0.377E-01    0.211E-01
DAV:  12    -0.328859833818E+03   -0.21015E-03   -0.53340E-03 23904   0.195E-01    0.104E-01
DAV:  13    -0.328859962766E+03   -0.12895E-03   -0.12674E-03 20792   0.111E-01    0.444E-02
DAV:  14    -0.328859963955E+03   -0.11895E-05   -0.28026E-04 11304   0.724E-02
   2 F= -.32885996E+03 E0= -.32885481E+03  d E =-.321549E+00
       N       E                     dE             d eps       ncg     rms          rms(c)
DAV:   1    -0.328887882798E+03   -0.27920E-01   -0.27967E+00 15272   0.663E+00    0.162E+00
DAV:   2    -0.328896399811E+03   -0.85170E-02   -0.35866E-01 23192   0.248E+00    0.118E+00
DAV:   3    -0.328893916851E+03    0.24830E-02   -0.30288E-01 23000   0.172E+00    0.104E+00
DAV:   4    -0.328881146870E+03    0.12770E-01   -0.12331E-01 23392   0.114E+00    0.578E-01
DAV:   5    -0.328875838507E+03    0.53084E-02   -0.60892E-02 22360   0.789E-01    0.357E-01
DAV:   6    -0.328874681027E+03    0.11575E-02   -0.21963E-02 23648   0.449E-01    0.248E-01
DAV:   7    -0.328873930356E+03    0.75067E-03   -0.75910E-03 20920   0.267E-01    0.132E-01
DAV:   8    -0.328873905902E+03    0.24453E-04   -0.17696E-03 20512   0.125E-01    0.982E-02
DAV:   9    -0.328873932001E+03   -0.26098E-04   -0.75818E-04 16664   0.804E-02
   3 F= -.32887393E+03 E0= -.32886858E+03  d E =-.335517E+00
       N       E                     dE             d eps       ncg     rms          rms(c)
DAV:   1    -0.329059186752E+03   -0.18528E+00   -0.47799E+01 15120   0.239E+01    0.370E+00
DAV:   2    -0.329220624524E+03   -0.16144E+00   -0.38230E+00 20744   0.749E+00    0.257E+00
DAV:   3    -0.329218996523E+03    0.16280E-02   -0.18922E+00 23056   0.451E+00    0.222E+00
DAV:   4    -0.329141623865E+03    0.77373E-01   -0.47397E-01 22264   0.230E+00    0.110E+00
DAV:   5    -0.329126942236E+03    0.14682E-01   -0.19036E-01 22672   0.146E+00    0.720E-01
DAV:   6    -0.329123120689E+03    0.38215E-02   -0.11261E-01 23216   0.103E+00    0.516E-01
DAV:   7    -0.329120825245E+03    0.22954E-02   -0.47344E-02 24816   0.642E-01    0.360E-01
DAV:   8    -0.329119963311E+03    0.86193E-03   -0.14672E-02 21856   0.348E-01    0.256E-01
DAV:   9    -0.329119933074E+03    0.30237E-04   -0.46402E-03 20536   0.188E-01    0.198E-01
DAV:  10    -0.329120072708E+03   -0.13963E-03   -0.21644E-03 19728   0.146E-01    0.153E-01
DAV:  11    -0.329120164950E+03   -0.92242E-04   -0.16155E-03 19904   0.144E-01    0.902E-02
DAV:  12    -0.329120194804E+03   -0.29854E-04   -0.11878E-03 20168   0.120E-01    0.571E-02
DAV:  13    -0.329120143726E+03    0.51078E-04   -0.46930E-04 14112   0.851E-02
   4 F= -.32912014E+03 E0= -.32911605E+03  d E =-.246212E+00
       N       E                     dE             d eps       ncg     rms          rms(c)
DAV:   1    -0.329132259685E+03   -0.12065E-01   -0.78336E+00 15120   0.963E+00    0.146E+00
DAV:   2    -0.329158650513E+03   -0.26391E-01   -0.62850E-01 21360   0.303E+00    0.103E+00
DAV:   3    -0.329156379368E+03    0.22711E-02   -0.29260E-01 22264   0.172E+00    0.878E-01
DAV:   4    -0.329144709094E+03    0.11670E-01   -0.79422E-02 21872   0.933E-01    0.438E-01
DAV:   5    -0.329142402799E+03    0.23063E-02   -0.31963E-02 22608   0.596E-01    0.287E-01
DAV:   6    -0.329141707585E+03    0.69521E-03   -0.17164E-02 23272   0.400E-01    0.199E-01
DAV:   7    -0.329141364962E+03    0.34262E-03   -0.71026E-03 22872   0.248E-01    0.139E-01
DAV:   8    -0.329141239114E+03    0.12585E-03   -0.21324E-03 20008   0.134E-01    0.980E-02
DAV:   9    -0.329141231233E+03    0.78809E-05   -0.64606E-04 15696   0.769E-02
   5 F= -.32914123E+03 E0= -.32913755E+03  d E =-.267299E+00
       N       E                     dE             d eps       ncg     rms          rms(c)
DAV:   1    -0.329158861495E+03   -0.17622E-01   -0.31507E+00 16144   0.606E+00    0.614E-01
DAV:   2    -0.329176773347E+03   -0.17912E-01   -0.21390E-01 21432   0.184E+00    0.653E-01
DAV:   3    -0.329173049011E+03    0.37243E-02   -0.67526E-02 22264   0.862E-01    0.382E-01
DAV:   4    -0.329172015840E+03    0.10332E-02   -0.15518E-02 22464   0.437E-01    0.268E-01
DAV:   5    -0.329171471809E+03    0.54403E-03   -0.79423E-03 21824   0.286E-01    0.182E-01
DAV:   6    -0.329171636602E+03   -0.16479E-03   -0.56063E-03 22880   0.233E-01    0.177E-01
DAV:   7    -0.329171145662E+03    0.49094E-03   -0.36067E-03 21416   0.184E-01    0.745E-02
DAV:   8    -0.329171071685E+03    0.73977E-04   -0.59594E-04 15776   0.795E-02
   6 F= -.32917107E+03 E0= -.32916783E+03  d E =-.298405E-01
       N       E                     dE             d eps       ncg     rms          rms(c)
DAV:   1    -0.329158759906E+03    0.12386E-01   -0.79035E+00 16128   0.961E+00    0.981E-01
DAV:   2    -0.329205494002E+03   -0.46734E-01   -0.54304E-01 21416   0.293E+00    0.108E+00
DAV:   3    -0.329195451934E+03    0.10042E-01   -0.18007E-01 22376   0.141E+00    0.646E-01
DAV:   4    -0.329192565731E+03    0.28862E-02   -0.42126E-02 23240   0.709E-01    0.447E-01
DAV:   5    -0.329190974134E+03    0.15916E-02   -0.20944E-02 22880   0.455E-01    0.303E-01
DAV:   6    -0.329191400310E+03   -0.42618E-03   -0.15174E-02 23176   0.387E-01    0.283E-01
DAV:   7    -0.329190045635E+03    0.13547E-02   -0.96185E-03 23352   0.310E-01    0.114E-01
DAV:   8    -0.329189881360E+03    0.16428E-03   -0.16533E-03 20608   0.122E-01    0.665E-02
DAV:   9    -0.329189875511E+03    0.58485E-05   -0.41741E-04 13816   0.651E-02
   7 F= -.32918988E+03 E0= -.32918734E+03  d E =-.486443E-01
       N       E                     dE             d eps       ncg     rms          rms(c)
DAV:   1    -0.329228848395E+03   -0.38967E-01   -0.43287E+00 16112   0.869E+00    0.216E+00
DAV:   2    -0.329237924921E+03   -0.90765E-02   -0.64524E-01 23688   0.333E+00    0.143E+00
DAV:   3    -0.329235491114E+03    0.24338E-02   -0.50404E-01 22432   0.219E+00    0.141E+00
DAV:   4    -0.329214536435E+03    0.20955E-01   -0.25345E-01 23200   0.157E+00    0.827E-01
DAV:   5    -0.329202723617E+03    0.11813E-01   -0.10854E-01 22376   0.102E+00    0.394E-01
DAV:   6    -0.329200713572E+03    0.20100E-02   -0.26435E-02 24464   0.487E-01    0.232E-01
DAV:   7    -0.329200829665E+03   -0.11609E-03   -0.11563E-02 22864   0.308E-01    0.196E-01
DAV:   8    -0.329200582662E+03    0.24700E-03   -0.36316E-03 20240   0.179E-01    0.122E-01
DAV:   9    -0.329200664500E+03   -0.81839E-04   -0.85281E-04 17784   0.922E-02
   8 F= -.32920066E+03 E0= -.32919870E+03  d E =-.107890E-01
       N       E                     dE             d eps       ncg     rms          rms(c)
DAV:   1    -0.329202764003E+03   -0.21813E-02   -0.16920E-01 16432   0.172E+00    0.439E-01
DAV:   2    -0.329204273764E+03   -0.15098E-02   -0.33485E-02 23136   0.732E-01    0.368E-01
DAV:   3    -0.329203072618E+03    0.12011E-02   -0.24811E-02 22512   0.503E-01    0.267E-01
DAV:   4    -0.329202367664E+03    0.70495E-03   -0.72184E-03 20768   0.279E-01    0.161E-01
DAV:   5    -0.329201970592E+03    0.39707E-03   -0.40561E-03 20944   0.205E-01    0.904E-02
DAV:   6    -0.329201872413E+03    0.98179E-04   -0.15188E-03 18936   0.128E-01    0.614E-02
DAV:   7    -0.329201833249E+03    0.39164E-04   -0.92198E-04 17792   0.967E-02
   9 F= -.32920183E+03 E0= -.32919976E+03  d E =-.119577E-01
       N       E                     dE             d eps       ncg     rms          rms(c)
DAV:   1    -0.329206778923E+03   -0.49065E-02   -0.11438E+00 16360   0.337E+00    0.257E-01
DAV:   2    -0.329210699701E+03   -0.39208E-02   -0.47891E-02 24936   0.980E-01    0.252E-01
DAV:   3    -0.329210420182E+03    0.27952E-03   -0.11685E-02 24080   0.334E-01    0.199E-01
DAV:   4    -0.329209971606E+03    0.44858E-03   -0.34849E-03 20896   0.181E-01    0.116E-01
DAV:   5    -0.329209865587E+03    0.10602E-03   -0.11459E-03 17952   0.111E-01    0.843E-02
DAV:   6    -0.329209841317E+03    0.24269E-04   -0.10809E-03 17616   0.105E-01    0.690E-02
DAV:   7    -0.329209769337E+03    0.71981E-04   -0.64979E-04 15632   0.915E-02
  10 F= -.32920977E+03 E0= -.32920800E+03  d E =-.793609E-02
       N       E                     dE             d eps       ncg     rms          rms(c)
DAV:   1    -0.329202457983E+03    0.73833E-02   -0.53236E+00 16432   0.726E+00    0.563E-01
DAV:   2    -0.329220466037E+03   -0.18008E-01   -0.22055E-01 24968   0.210E+00    0.540E-01
DAV:   3    -0.329219264284E+03    0.12018E-02   -0.53310E-02 24320   0.716E-01    0.427E-01
DAV:   4    -0.329217271165E+03    0.19931E-02   -0.15502E-02 22776   0.384E-01    0.259E-01
DAV:   5    -0.329216813949E+03    0.45722E-03   -0.53399E-03 21040   0.235E-01    0.192E-01
DAV:   6    -0.329216793224E+03    0.20725E-04   -0.59556E-03 21680   0.236E-01    0.168E-01
DAV:   7    -0.329216322528E+03    0.47070E-03   -0.35972E-03 21152   0.185E-01    0.753E-02
DAV:   8    -0.329216234420E+03    0.88109E-04   -0.85237E-04 16888   0.936E-02
  11 F= -.32921623E+03 E0= -.32921524E+03  d E =-.144012E-01
       N       E                     dE             d eps       ncg     rms          rms(c)
DAV:   1    -0.329218735249E+03   -0.24127E-02   -0.52100E-01 15136   0.230E+00    0.380E-01
DAV:   2    -0.329219565687E+03   -0.83044E-03   -0.28828E-02 20576   0.646E-01    0.216E-01
DAV:   3    -0.329219790227E+03   -0.22454E-03   -0.11219E-02 22504   0.359E-01    0.209E-01
DAV:   4    -0.329219122766E+03    0.66746E-03   -0.57699E-03 20176   0.237E-01    0.942E-02
DAV:   5    -0.329219053939E+03    0.68827E-04   -0.17709E-03 19536   0.140E-01    0.748E-02
DAV:   6    -0.329218973056E+03    0.80883E-04   -0.10807E-03 18096   0.105E-01    0.452E-02
DAV:   7    -0.329218948463E+03    0.24593E-04   -0.29354E-04 12272   0.692E-02
  12 F= -.32921895E+03 E0= -.32921790E+03  d E =-.271404E-02
       N       E                     dE             d eps       ncg     rms          rms(c)
DAV:   1    -0.329219303273E+03   -0.33022E-03   -0.21133E-01 15136   0.147E+00    0.238E-01
DAV:   2    -0.329219614756E+03   -0.31148E-03   -0.11146E-02 19896   0.408E-01    0.132E-01
DAV:   3    -0.329219711782E+03   -0.97026E-04   -0.40738E-03 21144   0.218E-01    0.127E-01
DAV:   4    -0.329219480445E+03    0.23134E-03   -0.22940E-03 19680   0.149E-01    0.610E-02
DAV:   5    -0.329219430454E+03    0.49992E-04   -0.54630E-04 13984   0.863E-02
  13 F= -.32921943E+03 E0= -.32921834E+03  d E =-.319603E-02
       N       E                     dE             d eps       ncg     rms          rms(c)
DAV:   1    -0.329221474051E+03   -0.19936E-02   -0.21538E-01 15136   0.157E+00    0.305E-01
DAV:   2    -0.329222221399E+03   -0.74735E-03   -0.19129E-02 22104   0.533E-01    0.244E-01
DAV:   3    -0.329221826157E+03    0.39524E-03   -0.11969E-02 22504   0.345E-01    0.193E-01
DAV:   4    -0.329221499969E+03    0.32619E-03   -0.44699E-03 20448   0.213E-01    0.129E-01
DAV:   5    -0.329221224853E+03    0.27512E-03   -0.25673E-03 19624   0.161E-01    0.660E-02
DAV:   6    -0.329221181960E+03    0.42893E-04   -0.84786E-04 17000   0.945E-02
  14 F= -.32922118E+03 E0= -.32922003E+03  d E =-.175151E-02
       N       E                     dE             d eps       ncg     rms          rms(c)
DAV:   1    -0.329222245367E+03   -0.10205E-02   -0.37622E-01 15120   0.208E+00    0.388E-01
DAV:   2    -0.329223530677E+03   -0.12853E-02   -0.32032E-02 21672   0.698E-01    0.307E-01
DAV:   3    -0.329222710109E+03    0.82057E-03   -0.19708E-02 22136   0.439E-01    0.220E-01
DAV:   4    -0.329222368250E+03    0.34186E-03   -0.68642E-03 20456   0.265E-01    0.165E-01
DAV:   5    -0.329221901738E+03    0.46651E-03   -0.40442E-03 20888   0.198E-01    0.758E-02
DAV:   6    -0.329221851181E+03    0.50558E-04   -0.10240E-03 18480   0.102E-01    0.511E-02
DAV:   7    -0.329221829392E+03    0.21788E-04   -0.34311E-04 12072   0.739E-02
  15 F= -.32922183E+03 E0= -.32922064E+03  d E =-.239894E-02
       N       E                     dE             d eps       ncg     rms          rms(c)
DAV:   1    -0.329222328488E+03   -0.47731E-03   -0.94435E-02 16704   0.945E-01    0.651E-02
DAV:   2    -0.329222585292E+03   -0.25680E-03   -0.32931E-03 24648   0.256E-01    0.675E-02
DAV:   3    -0.329222557724E+03    0.27569E-04   -0.50467E-04 14256   0.784E-02
  16 F= -.32922256E+03 E0= -.32922133E+03  d E =-.728331E-03
       N       E                     dE             d eps       ncg     rms          rms(c)
DAV:   1    -0.329221985452E+03    0.59984E-03   -0.84611E-01 16560   0.283E+00    0.205E-01
DAV:   2    -0.329224111706E+03   -0.21263E-02   -0.28437E-02 24920   0.754E-01    0.181E-01
DAV:   3    -0.329223970488E+03    0.14122E-03   -0.37697E-03 23488   0.192E-01    0.128E-01
DAV:   4    -0.329223858591E+03    0.11190E-03   -0.15098E-03 18728   0.119E-01    0.966E-02
DAV:   5    -0.329223810363E+03    0.48228E-04   -0.90722E-04 17552   0.933E-02
  17 F= -.32922381E+03 E0= -.32922256E+03  d E =-.198097E-02
       N       E                     dE             d eps       ncg     rms          rms(c)
DAV:   1    -0.329224196476E+03   -0.33788E-03   -0.86863E-02 15656   0.110E+00    0.169E-01
DAV:   2    -0.329224879850E+03   -0.68337E-03   -0.10438E-02 22288   0.398E-01    0.170E-01
DAV:   3    -0.329224488003E+03    0.39185E-03   -0.47475E-03 20200   0.219E-01    0.967E-02
DAV:   4    -0.329224434878E+03    0.53125E-04   -0.13035E-03 17632   0.120E-01    0.753E-02
DAV:   5    -0.329224344070E+03    0.90808E-04   -0.74712E-04 15880   0.923E-02
  18 F= -.32922434E+03 E0= -.32922313E+03  d E =-.533707E-03
       N       E                     dE             d eps       ncg     rms          rms(c)
DAV:   1    -0.329224008757E+03    0.42612E-03   -0.22827E-01 15568   0.178E+00    0.264E-01
DAV:   2    -0.329225155612E+03   -0.11469E-02   -0.21642E-02 21616   0.577E-01    0.199E-01
DAV:   3    -0.329224794890E+03    0.36072E-03   -0.87560E-03 21872   0.307E-01    0.136E-01
DAV:   4    -0.329224539154E+03    0.25574E-03   -0.25771E-03 19808   0.162E-01    0.712E-02
DAV:   5    -0.329224518583E+03    0.20571E-04   -0.10676E-03 17112   0.109E-01    0.647E-02
DAV:   6    -0.329224449460E+03    0.69123E-04   -0.46730E-04 13136   0.849E-02
  19 F= -.32922445E+03 E0= -.32922330E+03  d E =-.639097E-03
