<?xml version="1.0" encoding="ISO-8859-1"?>
<modeling>
 <generator>
  <i name="program" type="string">vasp </i>
  <i name="version" type="string">5.4.4.18Apr17-6-g9f103f2a35  </i>
  <i name="subversion" type="string">(build Aug 09 2018 16:20:53) complex            parallel </i>
  <i name="platform" type="string">LinuxIFC </i>
  <i name="date" type="string">2020 04 13 </i>
  <i name="time" type="string">18:41:54 </i>
 </generator>
 <incar>
  <i type="string" name="SYSTEM"> SQS with 1 vacancy for VFE and VRV</i>
  <i type="string" name="PREC">normal</i>
  <i type="int" name="IALGO">    38</i>
  <i type="int" name="ICHARG">     2</i>
  <i type="int" name="IBRION">     2</i>
  <i type="int" name="NSW">    50</i>
  <i type="int" name="ISIF">     3</i>
  <i type="int" name="ISYM">     0</i>
  <i name="ENCUT">    600.00000000</i>
  <i type="string" name="LREAL"> Auto</i>
  <i type="int" name="ISMEAR">     1</i>
  <i name="SIGMA">      0.20000000</i>
  <v type="int" name="KPOINT_BSE">    -1     0     0     0</v>
  <i type="string" name="GGA"> PS</i>
 </incar>
 <structure name="primitive_cell" >
  <crystal>
   <varray name="basis" >
    <v>      -3.19000000      -3.19000000      -3.19000000 </v>
    <v>       1.59500000       1.59500000      -7.97500000 </v>
    <v>       7.97500000      -7.97500000      -1.59500000 </v>
   </varray>
   <i name="volume">    486.92638500 </i>
   <varray name="rec_basis" >
    <v>      -0.13584117      -0.12539185      -0.05224660 </v>
    <v>       0.04179728       0.06269592      -0.10449321 </v>
    <v>       0.06269592      -0.06269592       0.00000000 </v>
   </varray>
  </crystal>
  <varray name="positions" >
   <v>      -0.03333333      -0.06666667       0.40000000 </v>
   <v>       0.30000000      -0.40000000       0.40000000 </v>
   <v>      -0.10000000      -0.20000000       0.20000000 </v>
   <v>       0.06666667       0.13333333       0.20000000 </v>
   <v>       0.46666667      -0.06666667       0.40000000 </v>
   <v>      -0.13333333      -0.26666667      -0.40000000 </v>
   <v>       0.03333333       0.06666667      -0.40000000 </v>
   <v>      -0.36666667       0.26666667       0.40000000 </v>
   <v>       0.40000000      -0.20000000       0.20000000 </v>
   <v>      -0.20000000      -0.40000000       0.40000000 </v>
   <v>      -0.43333333       0.13333333       0.20000000 </v>
   <v>       0.36666667      -0.26666667      -0.40000000 </v>
   <v>       0.13333333       0.26666667       0.40000000 </v>
   <v>      -0.46666667       0.06666667      -0.40000000 </v>
   <v>       0.23333333       0.46666667       0.20000000 </v>
   <v>       0.20000000       0.40000000      -0.40000000 </v>
   <v>       0.00000000       0.00000000       0.00000000 </v>
   <v>      -0.06666667      -0.13333333      -0.20000000 </v>
   <v>      -0.26666667       0.46666667       0.20000000 </v>
   <v>       0.33333333      -0.33333333       0.00000000 </v>
   <v>       0.43333333      -0.13333333      -0.20000000 </v>
   <v>      -0.50000000       0.00000000       0.00000000 </v>
   <v>       0.26666667      -0.46666667      -0.20000000 </v>
   <v>      -0.33333333       0.33333333       0.00000000 </v>
   <v>      -0.40000000       0.20000000      -0.20000000 </v>
   <v>      -0.16666667      -0.33333333       0.00000000 </v>
   <v>      -0.23333333      -0.46666667      -0.20000000 </v>
   <v>       0.16666667       0.33333333       0.00000000 </v>
   <v>       0.10000000       0.20000000      -0.20000000 </v>
  </varray>
 </structure>
 <varray name="primitive_index" >
  <v type="int" >        1 </v>
  <v type="int" >       18 </v>
  <v type="int" >        7 </v>
  <v type="int" >       24 </v>
  <v type="int" >       20 </v>
  <v type="int" >       19 </v>
  <v type="int" >        6 </v>
  <v type="int" >        2 </v>
  <v type="int" >       16 </v>
  <v type="int" >        8 </v>
  <v type="int" >       15 </v>
  <v type="int" >       11 </v>
  <v type="int" >       12 </v>
  <v type="int" >       27 </v>
  <v type="int" >       29 </v>
  <v type="int" >       23 </v>
  <v type="int" >        4 </v>
  <v type="int" >       14 </v>
  <v type="int" >        9 </v>
  <v type="int" >       28 </v>
  <v type="int" >       17 </v>
  <v type="int" >        3 </v>
  <v type="int" >       22 </v>
  <v type="int" >       10 </v>
  <v type="int" >       26 </v>
  <v type="int" >       13 </v>
  <v type="int" >       25 </v>
  <v type="int" >       21 </v>
  <v type="int" >        5 </v>
 </varray>
 <kpoints>
  <generation param="Gamma">
   <v type="int" name="divisions">       5        5        5 </v>
   <v name="usershift">      0.00000000       0.00000000       0.00000000 </v>
   <v name="genvec1">      0.20000000      -0.00000000      -0.00000000 </v>
   <v name="genvec2">      0.00000000       0.20000000       0.00000000 </v>
   <v name="genvec3">      0.00000000       0.00000000       0.20000000 </v>
   <v name="shift">      0.00000000       0.00000000       0.00000000 </v>
  </generation>
  <varray name="kpointlist" >
   <v>       0.00000000       0.00000000       0.00000000 </v>
   <v>       0.20000000      -0.00000000       0.00000000 </v>
   <v>       0.40000000      -0.00000000       0.00000000 </v>
   <v>       0.00000000       0.20000000       0.00000000 </v>
   <v>       0.20000000       0.20000000      -0.00000000 </v>
   <v>       0.40000000       0.20000000      -0.00000000 </v>
   <v>      -0.40000000       0.20000000      -0.00000000 </v>
   <v>      -0.20000000       0.20000000       0.00000000 </v>
   <v>       0.00000000       0.40000000       0.00000000 </v>
   <v>       0.20000000       0.40000000       0.00000000 </v>
   <v>       0.40000000       0.40000000      -0.00000000 </v>
   <v>      -0.40000000       0.40000000       0.00000000 </v>
   <v>      -0.20000000       0.40000000       0.00000000 </v>
   <v>       0.00000000       0.00000000       0.20000000 </v>
   <v>       0.20000000      -0.00000000       0.20000000 </v>
   <v>       0.40000000       0.00000000       0.20000000 </v>
   <v>      -0.40000000       0.00000000       0.20000000 </v>
   <v>      -0.20000000       0.00000000       0.20000000 </v>
   <v>       0.00000000       0.20000000       0.20000000 </v>
   <v>       0.20000000       0.20000000       0.20000000 </v>
   <v>       0.40000000       0.20000000       0.20000000 </v>
   <v>      -0.40000000       0.20000000       0.20000000 </v>
   <v>      -0.20000000       0.20000000       0.20000000 </v>
   <v>       0.00000000       0.40000000       0.20000000 </v>
   <v>       0.20000000       0.40000000       0.20000000 </v>
   <v>       0.40000000       0.40000000       0.20000000 </v>
   <v>      -0.40000000       0.40000000       0.20000000 </v>
   <v>      -0.20000000       0.40000000       0.20000000 </v>
   <v>       0.00000000      -0.40000000       0.20000000 </v>
   <v>       0.20000000      -0.40000000       0.20000000 </v>
   <v>       0.40000000      -0.40000000       0.20000000 </v>
   <v>      -0.40000000      -0.40000000       0.20000000 </v>
   <v>      -0.20000000      -0.40000000       0.20000000 </v>
   <v>       0.00000000      -0.20000000       0.20000000 </v>
   <v>       0.20000000      -0.20000000       0.20000000 </v>
   <v>       0.40000000      -0.20000000       0.20000000 </v>
   <v>      -0.40000000      -0.20000000       0.20000000 </v>
   <v>      -0.20000000      -0.20000000       0.20000000 </v>
   <v>       0.00000000       0.00000000       0.40000000 </v>
   <v>       0.20000000      -0.00000000       0.40000000 </v>
   <v>       0.40000000      -0.00000000       0.40000000 </v>
   <v>      -0.40000000       0.00000000       0.40000000 </v>
   <v>      -0.20000000       0.00000000       0.40000000 </v>
   <v>      -0.00000000       0.20000000       0.40000000 </v>
   <v>       0.20000000       0.20000000       0.40000000 </v>
   <v>       0.40000000       0.20000000       0.40000000 </v>
   <v>      -0.40000000       0.20000000       0.40000000 </v>
   <v>      -0.20000000       0.20000000       0.40000000 </v>
   <v>       0.00000000       0.40000000       0.40000000 </v>
   <v>       0.20000000       0.40000000       0.40000000 </v>
   <v>       0.40000000       0.40000000       0.40000000 </v>
   <v>      -0.40000000       0.40000000       0.40000000 </v>
   <v>      -0.20000000       0.40000000       0.40000000 </v>
   <v>       0.00000000      -0.40000000       0.40000000 </v>
   <v>       0.20000000      -0.40000000       0.40000000 </v>
   <v>       0.40000000      -0.40000000       0.40000000 </v>
   <v>      -0.40000000      -0.40000000       0.40000000 </v>
   <v>      -0.20000000      -0.40000000       0.40000000 </v>
   <v>       0.00000000      -0.20000000       0.40000000 </v>
   <v>       0.20000000      -0.20000000       0.40000000 </v>
   <v>       0.40000000      -0.20000000       0.40000000 </v>
   <v>      -0.40000000      -0.20000000       0.40000000 </v>
   <v>      -0.20000000      -0.20000000       0.40000000 </v>
  </varray>
  <varray name="weights" >
   <v>       0.00800000 </v>
   <v>       0.01600000 </v>
   <v>       0.01600000 </v>
   <v>       0.01600000 </v>
   <v>       0.01600000 </v>
   <v>       0.01600000 </v>
   <v>       0.01600000 </v>
   <v>       0.01600000 </v>
   <v>       0.01600000 </v>
   <v>       0.01600000 </v>
   <v>       0.01600000 </v>
   <v>       0.01600000 </v>
   <v>       0.01600000 </v>
   <v>       0.01600000 </v>
   <v>       0.01600000 </v>
   <v>       0.01600000 </v>
   <v>       0.01600000 </v>
   <v>       0.01600000 </v>
   <v>       0.01600000 </v>
   <v>       0.01600000 </v>
   <v>       0.01600000 </v>
   <v>       0.01600000 </v>
   <v>       0.01600000 </v>
   <v>       0.01600000 </v>
   <v>       0.01600000 </v>
   <v>       0.01600000 </v>
   <v>       0.01600000 </v>
   <v>       0.01600000 </v>
   <v>       0.01600000 </v>
   <v>       0.01600000 </v>
   <v>       0.01600000 </v>
   <v>       0.01600000 </v>
   <v>       0.01600000 </v>
   <v>       0.01600000 </v>
   <v>       0.01600000 </v>
   <v>       0.01600000 </v>
   <v>       0.01600000 </v>
   <v>       0.01600000 </v>
   <v>       0.01600000 </v>
   <v>       0.01600000 </v>
   <v>       0.01600000 </v>
   <v>       0.01600000 </v>
   <v>       0.01600000 </v>
   <v>       0.01600000 </v>
   <v>       0.01600000 </v>
   <v>       0.01600000 </v>
   <v>       0.01600000 </v>
   <v>       0.01600000 </v>
   <v>       0.01600000 </v>
   <v>       0.01600000 </v>
   <v>       0.01600000 </v>
   <v>       0.01600000 </v>
   <v>       0.01600000 </v>
   <v>       0.01600000 </v>
   <v>       0.01600000 </v>
   <v>       0.01600000 </v>
   <v>       0.01600000 </v>
   <v>       0.01600000 </v>
   <v>       0.01600000 </v>
   <v>       0.01600000 </v>
   <v>       0.01600000 </v>
   <v>       0.01600000 </v>
   <v>       0.01600000 </v>
  </varray>
 </kpoints>
 <parameters>
  <separator name="general" >
   <i type="string" name="SYSTEM">SQS with 1 vacancy for VFE and VRV</i>
   <i type="logical" name="LCOMPAT"> F  </i>
  </separator>
  <separator name="electronic" >
   <i type="string" name="PREC">normal</i>
   <i name="ENMAX">    600.00000000</i>
   <i name="ENAUG">    455.65900000</i>
   <i name="EDIFF">      0.00010000</i>
   <i type="int" name="IALGO">    38</i>
   <i type="int" name="IWAVPR">    11</i>
   <i type="int" name="NBANDS">   120</i>
   <i name="NELECT">    198.00000000</i>
   <i type="int" name="TURBO">     0</i>
   <i type="int" name="IRESTART">     0</i>
   <i type="int" name="NREBOOT">     0</i>
   <i type="int" name="NMIN">     0</i>
   <i name="EREF">      0.00000000</i>
   <separator name="electronic smearing" >
    <i type="int" name="ISMEAR">     1</i>
    <i name="SIGMA">      0.20000000</i>
    <i name="KSPACING">      0.50000000</i>
    <i type="logical" name="KGAMMA"> T  </i>
   </separator>
   <separator name="electronic projectors" >
    <i type="logical" name="LREAL"> T  </i>
    <v name="ROPT">     -0.00050000     -0.00050000     -0.00050000     -0.00050000     -0.00050000</v>
    <i type="int" name="LMAXPAW">  -100</i>
    <i type="int" name="LMAXMIX">     2</i>
    <i type="logical" name="NLSPLINE"> F  </i>
   </separator>
   <separator name="electronic startup" >
    <i type="int" name="ISTART">     0</i>
    <i type="int" name="ICHARG">     2</i>
    <i type="int" name="INIWAV">     1</i>
   </separator>
   <separator name="electronic spin" >
    <i type="int" name="ISPIN">     1</i>
    <i type="logical" name="LNONCOLLINEAR"> F  </i>
    <v name="MAGMOM">      1.00000000      1.00000000      1.00000000      1.00000000      1.00000000      1.00000000      1.00000000      1.00000000      1.00000000      1.00000000      1.00000000      1.00000000      1.00000000      1.00000000      1.00000000      1.00000000      1.00000000      1.00000000      1.00000000      1.00000000
      1.00000000      1.00000000      1.00000000      1.00000000      1.00000000      1.00000000      1.00000000      1.00000000      1.00000000</v>
    <i name="NUPDOWN">     -1.00000000</i>
    <i type="logical" name="LSORBIT"> F  </i>
    <v name="SAXIS">      0.00000000      0.00000000      1.00000000</v>
    <i type="logical" name="LSPIRAL"> F  </i>
    <v name="QSPIRAL">      0.00000000      0.00000000      0.00000000</v>
    <i type="logical" name="LZEROZ"> F  </i>
   </separator>
   <separator name="electronic exchange-correlation" >
    <i type="logical" name="LASPH"> F  </i>
    <i type="logical" name="LMETAGGA"> F  </i>
   </separator>
   <separator name="electronic convergence" >
    <i type="int" name="NELM">    60</i>
    <i type="int" name="NELMDL">    -5</i>
    <i type="int" name="NELMIN">     2</i>
    <i name="ENINI">    600.00000000</i>
    <separator name="electronic convergence detail" >
     <i type="logical" name="LDIAG"> T  </i>
     <i type="logical" name="LSUBROT"> F  </i>
     <i name="WEIMIN">      0.00100000</i>
     <i name="EBREAK">      0.00000021</i>
     <i name="DEPER">      0.30000000</i>
     <i type="int" name="NRMM">     4</i>
     <i name="TIME">      0.40000000</i>
    </separator>
   </separator>
   <separator name="electronic mixer" >
    <i name="AMIX">      0.40000000</i>
    <i name="BMIX">      1.00000000</i>
    <i name="AMIN">      0.10000000</i>
    <i name="AMIX_MAG">      1.60000000</i>
    <i name="BMIX_MAG">      1.00000000</i>
    <separator name="electronic mixer details" >
     <i type="int" name="IMIX">     4</i>
     <i type="logical" name="MIXFIRST"> F  </i>
     <i type="int" name="MAXMIX">   -45</i>
     <i name="WC">    100.00000000</i>
     <i type="int" name="INIMIX">     1</i>
     <i type="int" name="MIXPRE">     1</i>
     <i type="int" name="MREMOVE">     5</i>
    </separator>
   </separator>
   <separator name="electronic dipolcorrection" >
    <i type="logical" name="LDIPOL"> F  </i>
    <i type="logical" name="LMONO"> F  </i>
    <i type="int" name="IDIPOL">     0</i>
    <i name="EPSILON">      1.00000000</i>
    <v name="DIPOL">   -100.00000000   -100.00000000   -100.00000000</v>
    <i name="EFIELD">      0.00000000</i>
   </separator>
  </separator>
  <separator name="grids" >
   <i type="int" name="NGX">    36</i>
   <i type="int" name="NGY">    50</i>
   <i type="int" name="NGZ">    70</i>
   <i type="int" name="NGXF">    72</i>
   <i type="int" name="NGYF">   100</i>
   <i type="int" name="NGZF">   140</i>
   <i type="logical" name="ADDGRID"> F  </i>
  </separator>
  <separator name="ionic" >
   <i type="int" name="NSW">    50</i>
   <i type="int" name="IBRION">     2</i>
   <i type="int" name="MDALGO">     0</i>
   <i type="int" name="ISIF">     3</i>
   <i name="PSTRESS">      0.00000000</i>
   <i name="EDIFFG">      0.00100000</i>
   <i type="int" name="NFREE">     1</i>
   <i name="POTIM">      0.50000000</i>
   <i name="SMASS">     -3.00000000</i>
   <i name="SCALEE">      1.00000000</i>
  </separator>
  <separator name="ionic md" >
   <i name="TEBEG">      0.00010000</i>
   <i name="TEEND">      0.00010000</i>
   <i type="int" name="NBLOCK">     1</i>
   <i type="int" name="KBLOCK">    50</i>
   <i type="int" name="NPACO">   256</i>
   <i name="APACO">     16.00000000</i>
  </separator>
  <separator name="symmetry" >
   <i type="int" name="ISYM">     0</i>
   <i name="SYMPREC">      0.00001000</i>
  </separator>
  <separator name="dos" >
   <i type="int" name="LORBIT">     0</i>
   <v name="RWIGS">     -1.00000000     -1.00000000     -1.00000000     -1.00000000     -1.00000000</v>
   <i type="int" name="NEDOS">   301</i>
   <i name="EMIN">     10.00000000</i>
   <i name="EMAX">    -10.00000000</i>
   <i name="EFERMI">      0.00000000</i>
  </separator>
  <separator name="writing" >
   <i type="int" name="NWRITE">     2</i>
   <i type="logical" name="LWAVE"> T  </i>
   <i type="logical" name="LDOWNSAMPLE"> F  </i>
   <i type="logical" name="LCHARG"> T  </i>
   <i type="logical" name="LPARD"> F  </i>
   <i type="logical" name="LVTOT"> F  </i>
   <i type="logical" name="LVHAR"> F  </i>
   <i type="logical" name="LELF"> F  </i>
   <i type="logical" name="LOPTICS"> F  </i>
   <v name="STM">      0.00000000      0.00000000      0.00000000      0.00000000      0.00000000      0.00000000      0.00000000</v>
  </separator>
  <separator name="performance" >
   <i type="int" name="NPAR">     8</i>
   <i type="int" name="NSIM">     4</i>
   <i type="int" name="NBLK">    -1</i>
   <i type="logical" name="LPLANE"> T  </i>
   <i type="logical" name="LSCALAPACK"> T  </i>
   <i type="logical" name="LSCAAWARE"> F  </i>
   <i type="logical" name="LSCALU"> F  </i>
   <i type="logical" name="LASYNC"> F  </i>
   <i type="logical" name="LORBITALREAL"> F  </i>
  </separator>
  <separator name="miscellaneous" >
   <i type="int" name="IDIOT">     3</i>
   <i type="int" name="ISPECIAL">     0</i>
   <i type="logical" name="LMUSIC"> F  </i>
   <v name="POMASS">     92.91000000     95.94000000    180.94800000     47.88000000    183.85000000</v>
   <v name="DARWINR">      0.00000000      0.00000000      0.00000000      0.00000000      0.00000000</v>
   <v name="DARWINV">      1.00000000      1.00000000      1.00000000      1.00000000      1.00000000</v>
   <i type="logical" name="LCORR"> T  </i>
  </separator>
  <i type="logical" name="GGA_COMPAT"> T  </i>
  <i type="logical" name="LBERRY"> F  </i>
  <i type="int" name="ICORELEVEL">     0</i>
  <i type="logical" name="LDAU"> F  </i>
  <i type="int" name="I_CONSTRAINED_M">     0</i>
  <separator name="electronic exchange-correlation" >
   <i type="string" name="GGA">PS</i>
   <i type="int" name="VOSKOWN">     0</i>
   <i type="logical" name="LHFCALC"> F  </i>
   <i type="string" name="PRECFOCK"></i>
   <i type="logical" name="LSYMGRAD"> F  </i>
   <i type="logical" name="LHFONE"> F  </i>
   <i type="logical" name="LRHFCALC"> F  </i>
   <i type="logical" name="LTHOMAS"> F  </i>
   <i type="logical" name="LMODELHF"> F  </i>
   <i name="ENCUT4O">     -1.00000000</i>
   <i type="int" name="EXXOEP">     0</i>
   <i type="int" name="FOURORBIT">     0</i>
   <i name="AEXX">      0.00000000</i>
   <i name="HFALPHA">      0.00000000</i>
   <i name="MCALPHA">      0.00000000</i>
   <i name="ALDAX">      1.00000000</i>
   <i name="AGGAX">      1.00000000</i>
   <i name="ALDAC">      1.00000000</i>
   <i name="AGGAC">      1.00000000</i>
   <i type="int" name="NKREDX">     1</i>
   <i type="int" name="NKREDY">     1</i>
   <i type="int" name="NKREDZ">     1</i>
   <i type="logical" name="SHIFTRED"> F  </i>
   <i type="logical" name="ODDONLY"> F  </i>
   <i type="logical" name="EVENONLY"> F  </i>
   <i type="int" name="LMAXFOCK">     0</i>
   <i type="int" name="NMAXFOCKAE">     0</i>
   <i type="logical" name="LFOCKAEDFT"> F  </i>
   <i name="HFSCREEN">      0.00000000</i>
   <i name="HFSCREENC">      0.00000000</i>
   <i type="int" name="NBANDSGWLOW">     0</i>
  </separator>
  <separator name="vdW DFT" >
   <i type="logical" name="LUSE_VDW"> F  </i>
   <i name="Zab_VDW">     -0.84910000</i>
   <i name="PARAM1">      0.12340000</i>
   <i name="PARAM2">      1.00000000</i>
   <i name="PARAM3">      0.00000000</i>
  </separator>
  <separator name="model GW" >
   <i type="int" name="MODEL_GW">     0</i>
   <i name="MODEL_EPS0">     10.07433900</i>
   <i name="MODEL_ALPHA">      1.00000000</i>
  </separator>
  <separator name="linear response parameters" >
   <i type="logical" name="LEPSILON"> F  </i>
   <i type="logical" name="LRPA"> F  </i>
   <i type="logical" name="LNABLA"> F  </i>
   <i type="logical" name="LVEL"> F  </i>
   <i type="int" name="KINTER">     0</i>
   <i name="CSHIFT">      0.10000000</i>
   <i name="OMEGAMAX">     -1.00000000</i>
   <i name="DEG_THRESHOLD">      0.00200000</i>
   <i name="RTIME">     -0.10000000</i>
   <i name="WPLASMAI">      0.00000000</i>
   <v name="DFIELD">      0.00000000      0.00000000      0.00000000</v>
   <v name="WPLASMA">      0.00000000      0.00000000      0.00000000      0.00000000      0.00000000      0.00000000      0.00000000      0.00000000      0.00000000</v>
  </separator>
  <separator name="orbital magnetization" >
   <i type="logical" name="NUCIND"> F  </i>
   <v name="MAGPOS">      0.00000000      0.00000000      0.00000000</v>
   <i type="logical" name="LNICSALL"> T  </i>
   <i type="logical" name="ORBITALMAG"> F  </i>
   <i type="logical" name="LMAGBLOCH"> F  </i>
   <i type="logical" name="LCHIMAG"> F  </i>
   <i type="logical" name="LGAUGE"> T  </i>
   <i type="int" name="MAGATOM">     0</i>
   <v name="MAGDIPOL">      0.00000000      0.00000000      0.00000000</v>
   <v name="AVECCONST">      0.00000000      0.00000000      0.00000000</v>
  </separator>
  <separator name="response functions" >
   <i type="logical" name="LADDER"> F  </i>
   <i type="logical" name="LRPAFORCE"> F  </i>
   <i type="logical" name="LFXC"> F  </i>
   <i type="logical" name="LHARTREE"> T  </i>
   <i type="int" name="IBSE">     0</i>
   <v type="int" name="KPOINT">    -1     0     0     0</v>
   <i type="logical" name="LTCTE"> F  </i>
   <i type="logical" name="LTETE"> F  </i>
   <i type="logical" name="LTRIPLET"> F  </i>
   <i type="logical" name="LFXCEPS"> F  </i>
   <i type="logical" name="LFXHEG"> F  </i>
   <i type="int" name="NATURALO">     2</i>
   <i type="logical" name="L2ORDER"> F  </i>
   <i type="logical" name="LMP2LT"> F  </i>
   <i type="logical" name="LUSEW"> F  </i>
   <i name="ENCUTGW">     -2.00000000</i>
   <i name="ENCUTGWSOFT">     -2.00000000</i>
   <i name="ENCUTLF">     -1.00000000</i>
   <i type="int" name="LMAXMP2">    -1</i>
   <i name="SCISSOR">      0.00000000</i>
   <i type="int" name="NOMEGA">     0</i>
   <i type="int" name="NOMEGAR">     0</i>
   <i type="int" name="NBANDSGW">    -1</i>
   <i type="int" name="NBANDSO">    -1</i>
   <i type="int" name="NBANDSV">    -1</i>
   <i type="int" name="NELM">     1</i>
   <i type="int" name="NELMHF">     1</i>
   <i type="int" name="DIM">     3</i>
   <i type="int" name="ANTIRES">     0</i>
   <i name="OMEGAMAX">    -30.00000000</i>
   <i name="OMEGAMIN">    -30.00000000</i>
   <i name="OMEGATL">   -200.00000000</i>
   <i type="int" name="OMEGAGRID">   140</i>
   <i name="CSHIFT">     -0.10000000</i>
   <i type="logical" name="SELFENERGY"> F  </i>
   <i type="logical" name="LSPECTRAL"> F  </i>
   <i type="logical" name="LSPECTRALGW"> F  </i>
   <i type="logical" name="LSINGLES"> F  </i>
   <i type="logical" name="LFERMIGW"> F  </i>
   <i type="logical" name="ODDONLYGW"> F  </i>
   <i type="logical" name="EVENONLYGW"> F  </i>
   <i type="int" name="NKREDLFX">     1</i>
   <i type="int" name="NKREDLFY">     1</i>
   <i type="int" name="NKREDLFZ">     1</i>
   <i type="int" name="MAXMEM">  2800</i>
   <i type="int" name="TELESCOPE">     0</i>
   <i type="int" name="TAUPAR">     1</i>
   <i type="int" name="OMEGAPAR">    -1</i>
   <i name="LAMBDA">      1.00000000</i>
  </separator>
  <separator name="External order field" >
   <i name="OFIELD_KAPPA">      0.00000000</i>
   <v name="OFIELD_K">      0.00000000      0.00000000      0.00000000</v>
   <i name="OFIELD_Q6_NEAR">      0.00000000</i>
   <i name="OFIELD_Q6_FAR">      0.00000000</i>
   <i name="OFIELD_A">      0.00000000</i>
  </separator>
  <separator name="solvation model" >
   <i type="logical" name="LSOL"> F  </i>
  </separator>
 </parameters>
 <atominfo>
  <atoms>      29 </atoms>
  <types>       5 </types>
  <array name="atoms" >
   <dimension dim="1">ion</dimension>
   <field type="string">element</field>
   <field type="int">atomtype</field>
   <set>
    <rc><c>Nb</c><c>   1</c></rc>
    <rc><c>Nb</c><c>   1</c></rc>
    <rc><c>Nb</c><c>   1</c></rc>
    <rc><c>Nb</c><c>   1</c></rc>
    <rc><c>Nb</c><c>   1</c></rc>
    <rc><c>Nb</c><c>   1</c></rc>
    <rc><c>Mo</c><c>   2</c></rc>
    <rc><c>Mo</c><c>   2</c></rc>
    <rc><c>Mo</c><c>   2</c></rc>
    <rc><c>Mo</c><c>   2</c></rc>
    <rc><c>Mo</c><c>   2</c></rc>
    <rc><c>Mo</c><c>   2</c></rc>
    <rc><c>Ta</c><c>   3</c></rc>
    <rc><c>Ta</c><c>   3</c></rc>
    <rc><c>Ta</c><c>   3</c></rc>
    <rc><c>Ta</c><c>   3</c></rc>
    <rc><c>Ta</c><c>   3</c></rc>
    <rc><c>Ta</c><c>   3</c></rc>
    <rc><c>Ti</c><c>   4</c></rc>
    <rc><c>Ti</c><c>   4</c></rc>
    <rc><c>Ti</c><c>   4</c></rc>
    <rc><c>Ti</c><c>   4</c></rc>
    <rc><c>Ti</c><c>   4</c></rc>
    <rc><c>Ti</c><c>   4</c></rc>
    <rc><c>W </c><c>   5</c></rc>
    <rc><c>W </c><c>   5</c></rc>
    <rc><c>W </c><c>   5</c></rc>
    <rc><c>W </c><c>   5</c></rc>
    <rc><c>W </c><c>   5</c></rc>
   </set>
  </array>
  <array name="atomtypes" >
   <dimension dim="1">type</dimension>
   <field type="int">atomspertype</field>
   <field type="string">element</field>
   <field>mass</field>
   <field>valence</field>
   <field type="string">pseudopotential</field>
   <set>
    <rc><c>   6</c><c>Nb</c><c>     92.91000000</c><c>     13.00000000</c><c>  PAW_PBE Nb_sv 25May2007               </c></rc>
    <rc><c>   6</c><c>Mo</c><c>     95.94000000</c><c>      6.00000000</c><c>  PAW_PBE Mo 08Apr2002                  </c></rc>
    <rc><c>   6</c><c>Ta</c><c>    180.94800000</c><c>      5.00000000</c><c>  PAW_PBE Ta 17Jan2003                  </c></rc>
    <rc><c>   6</c><c>Ti</c><c>     47.88000000</c><c>      4.00000000</c><c>  PAW_PBE Ti 08Apr2002                  </c></rc>
    <rc><c>   5</c><c>W </c><c>    183.85000000</c><c>      6.00000000</c><c>  PAW_PBE W 08Apr2002                   </c></rc>
   </set>
  </array>
 </atominfo>
 <structure name="initialpos" >
  <crystal>
   <varray name="basis" >
    <v>      -3.19000000      -3.19000000      -3.19000000 </v>
    <v>       1.59500000       1.59500000      -7.97500000 </v>
    <v>       7.97500000      -7.97500000      -1.59500000 </v>
   </varray>
   <i name="volume">    486.92638500 </i>
   <varray name="rec_basis" >
    <v>      -0.13584117      -0.12539185      -0.05224660 </v>
    <v>       0.04179728       0.06269592      -0.10449321 </v>
    <v>       0.06269592      -0.06269592       0.00000000 </v>
   </varray>
  </crystal>
  <varray name="positions" >
   <v>       0.96666667       0.93333333       0.40000000 </v>
   <v>       0.63333333       0.26666667       0.40000000 </v>
   <v>       0.50000000       0.00000000       0.00000000 </v>
   <v>       0.00000000       0.00000000       0.00000000 </v>
   <v>       0.10000000       0.20000000       0.80000000 </v>
   <v>       0.03333333       0.06666667       0.60000000 </v>
   <v>       0.90000000       0.80000000       0.20000000 </v>
   <v>       0.80000000       0.60000000       0.40000000 </v>
   <v>       0.73333333       0.46666667       0.20000000 </v>
   <v>       0.66666667       0.33333333       0.00000000 </v>
   <v>       0.36666667       0.73333333       0.60000000 </v>
   <v>       0.13333333       0.26666667       0.40000000 </v>
   <v>       0.83333333       0.66666667       0.00000000 </v>
   <v>       0.93333333       0.86666667       0.80000000 </v>
   <v>       0.56666667       0.13333333       0.20000000 </v>
   <v>       0.40000000       0.80000000       0.20000000 </v>
   <v>       0.43333333       0.86666667       0.80000000 </v>
   <v>       0.30000000       0.60000000       0.40000000 </v>
   <v>       0.86666667       0.73333333       0.60000000 </v>
   <v>       0.46666667       0.93333333       0.40000000 </v>
   <v>       0.16666667       0.33333333       0.00000000 </v>
   <v>       0.26666667       0.53333333       0.80000000 </v>
   <v>       0.20000000       0.40000000       0.60000000 </v>
   <v>       0.06666667       0.13333333       0.20000000 </v>
   <v>       0.76666667       0.53333333       0.80000000 </v>
   <v>       0.60000000       0.20000000       0.80000000 </v>
   <v>       0.53333333       0.06666667       0.60000000 </v>
   <v>       0.33333333       0.66666667       0.00000000 </v>
   <v>       0.23333333       0.46666667       0.20000000 </v>
  </varray>
 </structure>
 <calculation>
  <scstep>
   <time name="dav">   18.38   18.44</time>
   <time name="total">   18.41   18.48</time>
   <energy>
    <i name="alphaZ">   1291.39724513 </i>
    <i name="ewald"> -11499.26638130 </i>
    <i name="hartreedc">  -3173.26179426 </i>
    <i name="XCdc">   -857.29352568 </i>
    <i name="pawpsdc">  12063.15090526 </i>
    <i name="pawaedc"> -10557.55889498 </i>
    <i name="eentropy">      0.00274669 </i>
    <i name="bandstr">   1879.99528837 </i>
    <i name="atom">  13006.21773402 </i>
    <i name="e_fr_energy">   2153.38332325 </i>
    <i name="e_wo_entrp">   2153.38057657 </i>
    <i name="e_0_energy">   2153.38240769 </i>
   </energy>
  </scstep>
  <scstep>
   <time name="dav">   18.18   18.21</time>
   <time name="total">   18.19   18.21</time>
   <energy>
    <i name="e_fr_energy">     73.52254998 </i>
    <i name="e_wo_entrp">     73.52460696 </i>
    <i name="e_0_energy">     73.52323564 </i>
   </energy>
  </scstep>
  <scstep>
   <time name="dav">   28.51   28.63</time>
   <time name="total">   28.52   28.64</time>
   <energy>
    <i name="e_fr_energy">   -299.70579585 </i>
    <i name="e_wo_entrp">   -299.70087983 </i>
    <i name="e_0_energy">   -299.70415718 </i>
   </energy>
  </scstep>
  <scstep>
   <time name="dav">   25.76   25.80</time>
   <time name="total">   25.77   25.80</time>
   <energy>
    <i name="e_fr_energy">   -346.09702964 </i>
    <i name="e_wo_entrp">   -346.08970361 </i>
    <i name="e_0_energy">   -346.09458763 </i>
   </energy>
  </scstep>
  <scstep>
   <time name="dav">   30.91   30.95</time>
   <time name="total">   31.50   31.54</time>
   <energy>
    <i name="e_fr_energy">   -351.26135567 </i>
    <i name="e_wo_entrp">   -351.24864406 </i>
    <i name="e_0_energy">   -351.25711847 </i>
   </energy>
  </scstep>
  <scstep>
   <time name="dav">   23.94   23.97</time>
   <time name="total">   24.56   24.59</time>
   <energy>
    <i name="e_fr_energy">   -345.14352559 </i>
    <i name="e_wo_entrp">   -345.14810079 </i>
    <i name="e_0_energy">   -345.14505066 </i>
   </energy>
  </scstep>
  <scstep>
   <time name="dav">   24.60   24.63</time>
   <time name="total">   25.22   25.26</time>
   <energy>
    <i name="e_fr_energy">   -354.15492031 </i>
    <i name="e_wo_entrp">   -354.15485664 </i>
    <i name="e_0_energy">   -354.15489909 </i>
   </energy>
  </scstep>
  <scstep>
   <time name="dav">   24.94   24.97</time>
   <time name="total">   25.56   25.59</time>
   <energy>
    <i name="e_fr_energy">   -352.41866179 </i>
    <i name="e_wo_entrp">   -352.41524164 </i>
    <i name="e_0_energy">   -352.41752174 </i>
   </energy>
  </scstep>
  <scstep>
   <time name="dav">   25.44   25.48</time>
   <time name="total">   26.07   26.11</time>
   <energy>
    <i name="e_fr_energy">   -338.63118075 </i>
    <i name="e_wo_entrp">   -338.61386290 </i>
    <i name="e_0_energy">   -338.62540813 </i>
   </energy>
  </scstep>
  <scstep>
   <time name="dav">   24.80   24.83</time>
   <time name="total">   25.44   25.48</time>
   <energy>
    <i name="e_fr_energy">   -333.82953026 </i>
    <i name="e_wo_entrp">   -333.81376960 </i>
    <i name="e_0_energy">   -333.82427671 </i>
   </energy>
  </scstep>
  <scstep>
   <time name="dav">   23.95   23.98</time>
   <time name="total">   24.57   24.61</time>
   <energy>
    <i name="e_fr_energy">   -331.23238607 </i>
    <i name="e_wo_entrp">   -331.21609482 </i>
    <i name="e_0_energy">   -331.22695565 </i>
   </energy>
  </scstep>
  <scstep>
   <time name="dav">   24.18   24.21</time>
   <time name="total">   24.80   24.83</time>
   <energy>
    <i name="e_fr_energy">   -329.46086984 </i>
    <i name="e_wo_entrp">   -329.44495599 </i>
    <i name="e_0_energy">   -329.45556522 </i>
   </energy>
  </scstep>
  <scstep>
   <time name="dav">   24.92   24.95</time>
   <time name="total">   25.53   25.58</time>
   <energy>
    <i name="e_fr_energy">   -328.74008932 </i>
    <i name="e_wo_entrp">   -328.72141584 </i>
    <i name="e_0_energy">   -328.73386483 </i>
   </energy>
  </scstep>
  <scstep>
   <time name="dav">   24.72   24.75</time>
   <time name="total">   25.33   25.37</time>
   <energy>
    <i name="e_fr_energy">   -328.61554994 </i>
    <i name="e_wo_entrp">   -328.59793049 </i>
    <i name="e_0_energy">   -328.60967679 </i>
   </energy>
  </scstep>
  <scstep>
   <time name="dav">   25.63   25.66</time>
   <time name="total">   26.25   26.28</time>
   <energy>
    <i name="e_fr_energy">   -328.56581671 </i>
    <i name="e_wo_entrp">   -328.54570998 </i>
    <i name="e_0_energy">   -328.55911447 </i>
   </energy>
  </scstep>
  <scstep>
   <time name="dav">   24.68   24.71</time>
   <time name="total">   25.30   25.34</time>
   <energy>
    <i name="e_fr_energy">   -328.54915278 </i>
    <i name="e_wo_entrp">   -328.52968861 </i>
    <i name="e_0_energy">   -328.54266472 </i>
   </energy>
  </scstep>
  <scstep>
   <time name="dav">   25.98   26.01</time>
   <time name="total">   26.59   26.63</time>
   <energy>
    <i name="e_fr_energy">   -328.54989534 </i>
    <i name="e_wo_entrp">   -328.52973853 </i>
    <i name="e_0_energy">   -328.54317641 </i>
   </energy>
  </scstep>
  <scstep>
   <time name="dav">   24.60   24.63</time>
   <time name="total">   25.22   25.25</time>
   <energy>
    <i name="e_fr_energy">   -328.54484751 </i>
    <i name="e_wo_entrp">   -328.52531134 </i>
    <i name="e_0_energy">   -328.53833546 </i>
   </energy>
  </scstep>
  <scstep>
   <time name="dav">   24.89   24.92</time>
   <time name="total">   25.51   25.55</time>
   <energy>
    <i name="e_fr_energy">   -328.54086382 </i>
    <i name="e_wo_entrp">   -328.52106106 </i>
    <i name="e_0_energy">   -328.53426290 </i>
   </energy>
  </scstep>
  <scstep>
   <time name="dav">   22.96   22.99</time>
   <time name="total">   23.58   23.61</time>
   <energy>
    <i name="e_fr_energy">   -328.53912465 </i>
    <i name="e_wo_entrp">   -328.51900821 </i>
    <i name="e_0_energy">   -328.53241917 </i>
   </energy>
  </scstep>
  <scstep>
   <time name="dav">   22.95   22.98</time>
   <time name="total">   23.57   23.60</time>
   <energy>
    <i name="e_fr_energy">   -328.53860249 </i>
    <i name="e_wo_entrp">   -328.51865917 </i>
    <i name="e_0_energy">   -328.53195471 </i>
   </energy>
  </scstep>
  <scstep>
   <time name="dav">   21.56   21.59</time>
   <time name="total">   22.20   22.24</time>
   <energy>
    <i name="e_fr_energy">   -328.53845864 </i>
    <i name="e_wo_entrp">   -328.51845630 </i>
    <i name="e_0_energy">   -328.53179119 </i>
   </energy>
  </scstep>
  <scstep>
   <time name="dav">   16.58   16.60</time>
   <time name="total">   16.61   16.64</time>
   <energy>
    <i name="alphaZ">   1291.39724513 </i>
    <i name="ewald"> -11499.26638130 </i>
    <i name="hartreedc">  -3028.91440553 </i>
    <i name="XCdc">   -851.79679863 </i>
    <i name="pawpsdc">  20670.66026814 </i>
    <i name="pawaedc"> -19165.66062604 </i>
    <i name="eentropy">     -0.01999814 </i>
    <i name="bandstr">   -751.15545239 </i>
    <i name="atom">  13006.21773402 </i>
    <i name="e_fr_energy">   -328.53841473 </i>
    <i name="e_wo_entrp">   -328.51841659 </i>
    <i name="e_0_energy">   -328.53174868 </i>
   </energy>
  </scstep>
  <structure>
   <crystal>
    <varray name="basis" >
     <v>      -3.19000000      -3.19000000      -3.19000000 </v>
     <v>       1.59500000       1.59500000      -7.97500000 </v>
     <v>       7.97500000      -7.97500000      -1.59500000 </v>
    </varray>
    <i name="volume">    486.92638500 </i>
    <varray name="rec_basis" >
     <v>      -0.13584117      -0.12539185      -0.05224660 </v>
     <v>       0.04179728       0.06269592      -0.10449321 </v>
     <v>       0.06269592      -0.06269592       0.00000000 </v>
    </varray>
   </crystal>
   <varray name="positions" >
    <v>       0.96666667       0.93333333       0.40000000 </v>
    <v>       0.63333333       0.26666667       0.40000000 </v>
    <v>       0.50000000       0.00000000       0.00000000 </v>
    <v>       0.00000000       0.00000000       0.00000000 </v>
    <v>       0.10000000       0.20000000       0.80000000 </v>
    <v>       0.03333333       0.06666667       0.60000000 </v>
    <v>       0.90000000       0.80000000       0.20000000 </v>
    <v>       0.80000000       0.60000000       0.40000000 </v>
    <v>       0.73333333       0.46666667       0.20000000 </v>
    <v>       0.66666667       0.33333333       0.00000000 </v>
    <v>       0.36666667       0.73333333       0.60000000 </v>
    <v>       0.13333333       0.26666667       0.40000000 </v>
    <v>       0.83333333       0.66666667       0.00000000 </v>
    <v>       0.93333333       0.86666667       0.80000000 </v>
    <v>       0.56666667       0.13333333       0.20000000 </v>
    <v>       0.40000000       0.80000000       0.20000000 </v>
    <v>       0.43333333       0.86666667       0.80000000 </v>
    <v>       0.30000000       0.60000000       0.40000000 </v>
    <v>       0.86666667       0.73333333       0.60000000 </v>
    <v>       0.46666667       0.93333333       0.40000000 </v>
    <v>       0.16666667       0.33333333       0.00000000 </v>
    <v>       0.26666667       0.53333333       0.80000000 </v>
    <v>       0.20000000       0.40000000       0.60000000 </v>
    <v>       0.06666667       0.13333333       0.20000000 </v>
    <v>       0.76666667       0.53333333       0.80000000 </v>
    <v>       0.60000000       0.20000000       0.80000000 </v>
    <v>       0.53333333       0.06666667       0.60000000 </v>
    <v>       0.33333333       0.66666667       0.00000000 </v>
    <v>       0.23333333       0.46666667       0.20000000 </v>
   </varray>
  </structure>
  <varray name="forces" >
   <v>      -0.07339917       0.39534246       0.20396589 </v>
   <v>       0.39648118      -0.33996926      -0.19110579 </v>
   <v>       0.04322040       0.17386921      -0.33531546 </v>
   <v>       0.35107688      -0.01375662      -0.14821027 </v>
   <v>       0.09170219       0.35434419      -0.61018294 </v>
   <v>      -0.12087086       0.50861146      -0.40879271 </v>
   <v>       0.16901195      -0.47857084       0.10163268 </v>
   <v>      -0.40886756      -0.15170930       0.62900246 </v>
   <v>      -0.05036657       0.03452402       0.04798030 </v>
   <v>       0.07356396       0.47771993      -0.53645103 </v>
   <v>      -0.33609870      -0.32304932       0.49051445 </v>
   <v>      -0.16447220       0.26090427      -0.68204553 </v>
   <v>       0.15104160      -0.53455974       0.34256832 </v>
   <v>       0.06642654       0.43016854      -0.18619996 </v>
   <v>      -0.45751169       0.37756170      -0.03184434 </v>
   <v>      -0.60790710      -0.25429235       0.52775787 </v>
   <v>      -0.94713820       0.10638340       0.80266684 </v>
   <v>       0.49135836      -0.05732824      -0.30180943 </v>
   <v>       0.06152591       0.23491077      -0.20906980 </v>
   <v>       0.59297148      -0.55365266       0.12795804 </v>
   <v>      -0.04345838      -0.17242223      -0.27640690 </v>
   <v>       0.11316096       0.09277830      -0.20907736 </v>
   <v>      -0.39649100      -0.04512643       0.42512599 </v>
   <v>       0.83681665      -0.12366056      -0.73632408 </v>
   <v>      -0.03712287      -0.28790441       0.47261613 </v>
   <v>      -0.06841547       0.34098333      -0.00347327 </v>
   <v>       0.30619946      -0.28134087      -0.10789157 </v>
   <v>      -0.17929711      -0.34386198       0.83578668 </v>
   <v>       0.14685935       0.17310322      -0.03337524 </v>
  </varray>
  <varray name="stress" >
   <v>     -20.20001738      -6.43926547       4.03444309 </v>
   <v>      -6.43926556     -23.16057916      -5.77028471 </v>
   <v>       4.03444304      -5.77028484     -18.10343140 </v>
  </varray>
  <energy>
   <i name="e_fr_energy">   -328.53841473 </i>
   <i name="e_wo_entrp">   -328.53174868 </i>
   <i name="e_0_energy">     -0.01999814 </i>
  </energy>
  <time name="totalsc">  583.36  584.36</time>
 </calculation>
 <calculation>
  <scstep>
   <time name="dav">   19.14   19.16</time>
   <time name="total">   19.77   19.80</time>
   <energy>
    <i name="alphaZ">   1332.40681287 </i>
    <i name="ewald"> -11659.62166284 </i>
    <i name="hartreedc">  -3022.00151218 </i>
    <i name="XCdc">   -847.93854835 </i>
    <i name="pawpsdc">  20670.71505616 </i>
    <i name="pawaedc"> -19165.69089334 </i>
    <i name="eentropy">     -0.01181748 </i>
    <i name="bandstr">   -643.46359207 </i>
    <i name="atom">  13006.21773402 </i>
    <i name="e_fr_energy">   -329.38842322 </i>
    <i name="e_wo_entrp">   -329.37660574 </i>
    <i name="e_0_energy">   -329.38448406 </i>
   </energy>
  </scstep>
  <scstep>
   <time name="dav">   25.70   25.74</time>
   <time name="total">   26.33   26.37</time>
   <energy>
    <i name="e_fr_energy">   -329.70138544 </i>
    <i name="e_wo_entrp">   -329.69253278 </i>
    <i name="e_0_energy">   -329.69843455 </i>
   </energy>
  </scstep>
  <scstep>
   <time name="dav">   25.55   25.58</time>
   <time name="total">   26.17   26.20</time>
   <energy>
    <i name="e_fr_energy">   -329.41213231 </i>
    <i name="e_wo_entrp">   -329.40214638 </i>
    <i name="e_0_energy">   -329.40880367 </i>
   </energy>
  </scstep>
  <scstep>
   <time name="dav">   26.03   26.06</time>
   <time name="total">   26.64   26.68</time>
   <energy>
    <i name="e_fr_energy">   -329.10233077 </i>
    <i name="e_wo_entrp">   -329.09187268 </i>
    <i name="e_0_energy">   -329.09884474 </i>
   </energy>
  </scstep>
  <scstep>
   <time name="dav">   25.25   25.29</time>
   <time name="total">   25.88   25.91</time>
   <energy>
    <i name="e_fr_energy">   -328.92810448 </i>
    <i name="e_wo_entrp">   -328.91610605 </i>
    <i name="e_0_energy">   -328.92410501 </i>
   </energy>
  </scstep>
  <scstep>
   <time name="dav">   27.21   27.24</time>
   <time name="total">   27.83   27.87</time>
   <energy>
    <i name="e_fr_energy">   -328.87209903 </i>
    <i name="e_wo_entrp">   -328.85614632 </i>
    <i name="e_0_energy">   -328.86678146 </i>
   </energy>
  </scstep>
  <scstep>
   <time name="dav">   27.10   27.14</time>
   <time name="total">   27.72   27.75</time>
   <energy>
    <i name="e_fr_energy">   -328.85604511 </i>
    <i name="e_wo_entrp">   -328.84081951 </i>
    <i name="e_0_energy">   -328.85096991 </i>
   </energy>
  </scstep>
  <scstep>
   <time name="dav">   25.62   25.65</time>
   <time name="total">   26.24   26.29</time>
   <energy>
    <i name="e_fr_energy">   -328.85541579 </i>
    <i name="e_wo_entrp">   -328.84021750 </i>
    <i name="e_0_energy">   -328.85034970 </i>
   </energy>
  </scstep>
  <scstep>
   <time name="dav">   25.37   25.40</time>
   <time name="total">   25.99   26.02</time>
   <energy>
    <i name="e_fr_energy">   -328.85656440 </i>
    <i name="e_wo_entrp">   -328.84107721 </i>
    <i name="e_0_energy">   -328.85140201 </i>
   </energy>
  </scstep>
  <scstep>
   <time name="dav">   25.15   25.18</time>
   <time name="total">   25.77   25.80</time>
   <energy>
    <i name="e_fr_energy">   -328.85981754 </i>
    <i name="e_wo_entrp">   -328.84480778 </i>
    <i name="e_0_energy">   -328.85481428 </i>
   </energy>
  </scstep>
  <scstep>
   <time name="dav">   25.77   25.80</time>
   <time name="total">   26.39   26.43</time>
   <energy>
    <i name="e_fr_energy">   -328.85962367 </i>
    <i name="e_wo_entrp">   -328.84401411 </i>
    <i name="e_0_energy">   -328.85442049 </i>
   </energy>
  </scstep>
  <scstep>
   <time name="dav">   26.66   26.73</time>
   <time name="total">   27.28   27.36</time>
   <energy>
    <i name="e_fr_energy">   -328.85983382 </i>
    <i name="e_wo_entrp">   -328.84442240 </i>
    <i name="e_0_energy">   -328.85469668 </i>
   </energy>
  </scstep>
  <scstep>
   <time name="dav">   23.72   23.79</time>
   <time name="total">   24.34   24.41</time>
   <energy>
    <i name="e_fr_energy">   -328.85996277 </i>
    <i name="e_wo_entrp">   -328.84453277 </i>
    <i name="e_0_energy">   -328.85481943 </i>
   </energy>
  </scstep>
  <scstep>
   <time name="dav">   15.22   15.26</time>
   <time name="total">   15.28   15.32</time>
   <energy>
    <i name="alphaZ">   1332.40681287 </i>
    <i name="ewald"> -11659.62166284 </i>
    <i name="hartreedc">  -2965.23372962 </i>
    <i name="XCdc">   -849.59029024 </i>
    <i name="pawpsdc">  21654.05104659 </i>
    <i name="pawaedc"> -20149.65487866 </i>
    <i name="eentropy">     -0.01546676 </i>
    <i name="bandstr">   -697.41952932 </i>
    <i name="atom">  13006.21773402 </i>
    <i name="e_fr_energy">   -328.85996396 </i>
    <i name="e_wo_entrp">   -328.84449720 </i>
    <i name="e_0_energy">   -328.85480837 </i>
   </energy>
  </scstep>
  <structure>
   <crystal>
    <varray name="basis" >
     <v>      -3.15354324      -3.13295557      -3.15800351 </v>
     <v>       1.55725155       1.59439648      -7.90340739 </v>
     <v>       7.91626380      -7.90292715      -1.54086922 </v>
    </varray>
    <i name="volume">    471.93949033 </i>
    <varray name="rec_basis" >
     <v>      -0.13755325      -0.12748655      -0.05282141 </v>
     <v>       0.04265377       0.06326825      -0.10535996 </v>
     <v>       0.06313550      -0.06323171      -0.00031614 </v>
    </varray>
   </crystal>
   <varray name="positions" >
    <v>       0.96424206       0.93335289       0.39858224 </v>
    <v>       0.63327329       0.26740123       0.40222748 </v>
    <v>       0.49951015       0.00230337      -0.00039516 </v>
    <v>      -0.00184394       0.00141344       0.00110348 </v>
    <v>       0.09879351       0.20433262       0.79920561 </v>
    <v>       0.03207910       0.07002204       0.59809606 </v>
    <v>       0.90153123       0.79838097       0.20195869 </v>
    <v>       0.80201176       0.59554587       0.39922219 </v>
    <v>       0.73333362       0.46642766       0.19974324 </v>
    <v>       0.66464687       0.33763085      -0.00122242 </v>
    <v>       0.36958709       0.72920582       0.59996053 </v>
    <v>       0.13455201       0.27056237       0.39871340 </v>
    <v>       0.83471373       0.66362750       0.00207368 </v>
    <v>       0.93076514       0.86904035       0.79889982 </v>
    <v>       0.56746120       0.13371331       0.19747422 </v>
    <v>       0.40419187       0.79534463       0.19893045 </v>
    <v>       0.43687358       0.86103235       0.79681350 </v>
    <v>       0.29788747       0.60233882       0.40165957 </v>
    <v>       0.86536940       0.73522183       0.59947558 </v>
    <v>       0.46580738       0.93220938       0.40346810 </v>
    <v>       0.16869118       0.33411756       0.00039007 </v>
    <v>       0.26589083       0.53489609       0.80006165 </v>
    <v>       0.20179978       0.39692095       0.59893726 </v>
    <v>       0.06378669       0.13835850       0.20290508 </v>
    <v>       0.76746031       0.53000520       0.80075852 </v>
    <v>       0.59839442       0.20091090       0.79876173 </v>
    <v>       0.53330054       0.06697703       0.60177708 </v>
    <v>       0.33448181       0.66105186       0.00049775 </v>
    <v>       0.23140789       0.46765462       0.19992062 </v>
   </varray>
  </structure>
  <varray name="forces" >
   <v>       0.00517816       0.26108109       0.02159279 </v>
   <v>       0.24726332      -0.23162408      -0.23075096 </v>
   <v>      -0.12472150       0.17051302       0.11736089 </v>
   <v>       0.09180731      -0.01977040      -0.12499487 </v>
   <v>      -0.01317975       0.18624149      -0.16649387 </v>
   <v>       0.05512313       0.44940755      -0.43682780 </v>
   <v>       0.06050549      -0.15015782       0.00946005 </v>
   <v>      -0.03246754      -0.21429894       0.36334822 </v>
   <v>       0.03308732      -0.11509440       0.13736093 </v>
   <v>      -0.01773751       0.18366006      -0.17004272 </v>
   <v>      -0.36208187      -0.32309253       0.46802192 </v>
   <v>       0.02747391       0.04324652      -0.25018912 </v>
   <v>       0.04593183      -0.09968802      -0.05027994 </v>
   <v>       0.01250135       0.09359699      -0.11343514 </v>
   <v>      -0.03559284       0.07072073       0.03139715 </v>
   <v>      -0.12693427      -0.15777362       0.04276437 </v>
   <v>      -0.22207952       0.07381511       0.38652455 </v>
   <v>       0.25937813      -0.21615096      -0.12054164 </v>
   <v>      -0.07624107       0.10702809      -0.06011159 </v>
   <v>       0.28511511      -0.29143040       0.11549431 </v>
   <v>      -0.06305312      -0.09671062      -0.11940961 </v>
   <v>       0.02514529       0.13101856       0.00559666 </v>
   <v>      -0.24197502       0.05459097       0.19076099 </v>
   <v>       0.50649866      -0.11344402      -0.48205897 </v>
   <v>      -0.23850221      -0.00714584       0.33539137 </v>
   <v>      -0.12153733       0.31106187      -0.16133948 </v>
   <v>       0.11694163      -0.05460586      -0.02971174 </v>
   <v>      -0.14476995       0.01340916       0.28824477 </v>
   <v>       0.04892286      -0.05840370       0.00286850 </v>
  </varray>
  <varray name="stress" >
   <v>      47.91082774      -3.01910828       2.23551369 </v>
   <v>      -3.01910833      45.69150587      -2.92078697 </v>
   <v>       2.23551371      -2.92078696      46.98169600 </v>
  </varray>
  <energy>
   <i name="e_fr_energy">   -328.85996396 </i>
   <i name="e_wo_entrp">   -328.85480837 </i>
   <i name="e_0_energy">     -0.01546676 </i>
  </energy>
  <time name="totalsc">  369.42  370.05</time>
 </calculation>
 <calculation>
  <scstep>
   <time name="dav">   18.58   18.61</time>
   <time name="total">   19.20   19.23</time>
   <energy>
    <i name="alphaZ">   1325.41722308 </i>
    <i name="ewald"> -11632.95440516 </i>
    <i name="hartreedc">  -2966.18668212 </i>
    <i name="XCdc">   -850.23534886 </i>
    <i name="pawpsdc">  21653.32188847 </i>
    <i name="pawaedc"> -20148.90859655 </i>
    <i name="eentropy">     -0.01611287 </i>
    <i name="bandstr">   -715.54358283 </i>
    <i name="atom">  13006.21773402 </i>
    <i name="e_fr_energy">   -328.88788280 </i>
    <i name="e_wo_entrp">   -328.87176993 </i>
    <i name="e_0_energy">   -328.88251184 </i>
   </energy>
  </scstep>
  <scstep>
   <time name="dav">   26.02   26.06</time>
   <time name="total">   26.64   26.68</time>
   <energy>
    <i name="e_fr_energy">   -328.89639981 </i>
    <i name="e_wo_entrp">   -328.88021231 </i>
    <i name="e_0_energy">   -328.89100398 </i>
   </energy>
  </scstep>
  <scstep>
   <time name="dav">   25.75   25.79</time>
   <time name="total">   26.37   26.43</time>
   <energy>
    <i name="e_fr_energy">   -328.89391685 </i>
    <i name="e_wo_entrp">   -328.87846219 </i>
    <i name="e_0_energy">   -328.88876530 </i>
   </energy>
  </scstep>
  <scstep>
   <time name="dav">   26.17   26.21</time>
   <time name="total">   26.78   26.83</time>
   <energy>
    <i name="e_fr_energy">   -328.88114687 </i>
    <i name="e_wo_entrp">   -328.86519036 </i>
    <i name="e_0_energy">   -328.87582803 </i>
   </energy>
  </scstep>
  <scstep>
   <time name="dav">   25.23   25.27</time>
   <time name="total">   25.85   25.89</time>
   <energy>
    <i name="e_fr_energy">   -328.87583851 </i>
    <i name="e_wo_entrp">   -328.85946428 </i>
    <i name="e_0_energy">   -328.87038043 </i>
   </energy>
  </scstep>
  <scstep>
   <time name="dav">   26.34   26.39</time>
   <time name="total">   26.96   27.01</time>
   <energy>
    <i name="e_fr_energy">   -328.87468103 </i>
    <i name="e_wo_entrp">   -328.85879147 </i>
    <i name="e_0_energy">   -328.86938451 </i>
   </energy>
  </scstep>
  <scstep>
   <time name="dav">   23.86   23.90</time>
   <time name="total">   24.47   24.52</time>
   <energy>
    <i name="e_fr_energy">   -328.87393036 </i>
    <i name="e_wo_entrp">   -328.85785068 </i>
    <i name="e_0_energy">   -328.86857046 </i>
   </energy>
  </scstep>
  <scstep>
   <time name="dav">   23.45   23.48</time>
   <time name="total">   24.08   24.12</time>
   <energy>
    <i name="e_fr_energy">   -328.87390590 </i>
    <i name="e_wo_entrp">   -328.85777197 </i>
    <i name="e_0_energy">   -328.86852793 </i>
   </energy>
  </scstep>
  <scstep>
   <time name="dav">   19.88   19.91</time>
   <time name="total">   19.91   19.96</time>
   <energy>
    <i name="alphaZ">   1325.41722308 </i>
    <i name="ewald"> -11632.95440516 </i>
    <i name="hartreedc">  -2976.07602996 </i>
    <i name="XCdc">   -849.93988583 </i>
    <i name="pawpsdc">  21480.79590659 </i>
    <i name="pawaedc"> -19975.72523206 </i>
    <i name="eentropy">     -0.01606844 </i>
    <i name="bandstr">   -706.59317425 </i>
    <i name="atom">  13006.21773402 </i>
    <i name="e_fr_energy">   -328.87393200 </i>
    <i name="e_wo_entrp">   -328.85786356 </i>
    <i name="e_0_energy">   -328.86857585 </i>
   </energy>
  </scstep>
  <structure>
   <crystal>
    <varray name="basis" >
     <v>      -3.15964615      -3.14250488      -3.16335976 </v>
     <v>       1.56357069       1.59449751      -7.91539208 </v>
     <v>       7.92609632      -7.91499224      -1.54993078 </v>
    </varray>
    <i name="volume">    474.42826396 </i>
    <varray name="rec_basis" >
     <v>      -0.13726338      -0.12713141      -0.05272407 </v>
     <v>       0.04250865       0.06317146      -0.10521374 </v>
     <v>       0.06306144      -0.06314121      -0.00026246 </v>
    </varray>
   </crystal>
   <varray name="positions" >
    <v>       0.96465456       0.93334972       0.39882206 </v>
    <v>       0.63328219       0.26727576       0.40185123 </v>
    <v>       0.49959414       0.00191434      -0.00032927 </v>
    <v>      -0.00153133       0.00117343       0.00091707 </v>
    <v>       0.09899991       0.20360079       0.79933824 </v>
    <v>       0.03229409       0.06945597       0.59841637 </v>
    <v>       0.90126961       0.79865375       0.20162839 </v>
    <v>       0.80166969       0.59629943       0.39935480 </v>
    <v>       0.73333368       0.46646820       0.19978667 </v>
    <v>       0.66499160       0.33690497      -0.00101735 </v>
    <v>       0.36909037       0.72990402       0.59996819 </v>
    <v>       0.13434697       0.26990539       0.39892875 </v>
    <v>       0.83447729       0.66414008       0.00172457 </v>
    <v>       0.93120239       0.86863924       0.79908514 </v>
    <v>       0.56732811       0.13365089       0.19790022 </v>
    <v>       0.40347989       0.79613302       0.19911190 </v>
    <v>       0.43627336       0.86198722       0.79735280 </v>
    <v>       0.29824553       0.60194205       0.40137899 </v>
    <v>       0.86559042       0.73490272       0.59956363 </v>
    <v>       0.46595066       0.93239688       0.40288336 </v>
    <v>       0.16834747       0.33398545       0.00032347 </v>
    <v>       0.26602287       0.53463181       0.80005080 </v>
    <v>       0.20149423       0.39744231       0.59911746 </v>
    <v>       0.06427487       0.13750691       0.20241338 </v>
    <v>       0.76732427       0.53056723       0.80063163 </v>
    <v>       0.59866800       0.20075729       0.79897072 </v>
    <v>       0.53330500       0.06692350       0.60147702 </v>
    <v>       0.33428514       0.66200046       0.00041571 </v>
    <v>       0.23173502       0.46748718       0.19993405 </v>
   </varray>
  </structure>
  <varray name="forces" >
   <v>      -0.00932756       0.28694931       0.06447135 </v>
   <v>       0.27974245      -0.25671646      -0.22373161 </v>
   <v>      -0.09454951       0.17277779       0.03582103 </v>
   <v>       0.14238491      -0.01834016      -0.13011828 </v>
   <v>       0.00879049       0.21542685      -0.25120848 </v>
   <v>       0.02371661       0.46804871      -0.43410359 </v>
   <v>       0.08456582      -0.21106686       0.02704998 </v>
   <v>      -0.10002602      -0.20686314       0.41611568 </v>
   <v>       0.02251332      -0.08602433       0.11658910 </v>
   <v>       0.00351795       0.24196663      -0.23982662 </v>
   <v>      -0.35612593      -0.32902768       0.47652806 </v>
   <v>      -0.00074997       0.08863709      -0.33159879 </v>
   <v>       0.05703418      -0.17665725       0.01982638 </v>
   <v>       0.01841357       0.16401791      -0.13909531 </v>
   <v>      -0.11548989       0.13072719       0.01703754 </v>
   <v>      -0.22764543      -0.18088786       0.13417123 </v>
   <v>      -0.36409774       0.07870659       0.46287950 </v>
   <v>       0.30485467      -0.19005016      -0.15536881 </v>
   <v>      -0.04754907       0.13301458      -0.09064545 </v>
   <v>       0.34232888      -0.34427812       0.12416324 </v>
   <v>      -0.06620523      -0.11339619      -0.15247103 </v>
   <v>       0.03848611       0.12358549      -0.03353803 </v>
   <v>      -0.26420640       0.03606756       0.23068809 </v>
   <v>       0.56896199      -0.11794803      -0.52625977 </v>
   <v>      -0.20223577      -0.05819320       0.36534403 </v>
   <v>      -0.11005857       0.31979671      -0.13318980 </v>
   <v>       0.15217743      -0.10286148      -0.04104407 </v>
   <v>      -0.15646400      -0.05412311       0.39432187 </v>
   <v>       0.06724270      -0.01328839      -0.00280748 </v>
  </varray>
  <varray name="stress" >
   <v>      36.27868378      -3.66421334       2.50709574 </v>
   <v>      -3.66421333      34.01660576      -3.31628876 </v>
   <v>       2.50709575      -3.31628879      35.78033152 </v>
  </varray>
  <energy>
   <i name="e_fr_energy">   -328.87393200 </i>
   <i name="e_wo_entrp">   -328.86857585 </i>
   <i name="e_0_energy">     -0.01606844 </i>
  </energy>
  <time name="totalsc">  238.02  238.45</time>
 </calculation>
 <calculation>
  <scstep>
   <time name="dav">   18.31   18.34</time>
   <time name="total">   18.93   18.96</time>
   <energy>
    <i name="alphaZ">   1310.14888095 </i>
    <i name="ewald"> -11616.24270462 </i>
    <i name="hartreedc">  -2936.74421666 </i>
    <i name="XCdc">   -851.54051777 </i>
    <i name="pawpsdc">  21479.93639903 </i>
    <i name="pawaedc"> -19975.00080587 </i>
    <i name="eentropy">     -0.01064261 </i>
    <i name="bandstr">   -745.82331323 </i>
    <i name="atom">  13006.21773402 </i>
    <i name="e_fr_energy">   -329.05918675 </i>
    <i name="e_wo_entrp">   -329.04854415 </i>
    <i name="e_0_energy">   -329.05563922 </i>
   </energy>
  </scstep>
  <scstep>
   <time name="dav">   23.52   23.55</time>
   <time name="total">   24.14   24.17</time>
   <energy>
    <i name="e_fr_energy">   -329.22062452 </i>
    <i name="e_wo_entrp">   -329.20856075 </i>
    <i name="e_0_energy">   -329.21660327 </i>
   </energy>
  </scstep>
  <scstep>
   <time name="dav">   25.68   25.72</time>
   <time name="total">   26.32   26.36</time>
   <energy>
    <i name="e_fr_energy">   -329.21899652 </i>
    <i name="e_wo_entrp">   -329.20786067 </i>
    <i name="e_0_energy">   -329.21528457 </i>
   </energy>
  </scstep>
  <scstep>
   <time name="dav">   24.88   24.95</time>
   <time name="total">   25.50   25.57</time>
   <energy>
    <i name="e_fr_energy">   -329.14162387 </i>
    <i name="e_wo_entrp">   -329.12971102 </i>
    <i name="e_0_energy">   -329.13765292 </i>
   </energy>
  </scstep>
  <scstep>
   <time name="dav">   25.27   25.30</time>
   <time name="total">   25.89   25.92</time>
   <energy>
    <i name="e_fr_energy">   -329.12694224 </i>
    <i name="e_wo_entrp">   -329.11447176 </i>
    <i name="e_0_energy">   -329.12278541 </i>
   </energy>
  </scstep>
  <scstep>
   <time name="dav">   25.77   25.80</time>
   <time name="total">   26.39   26.43</time>
   <energy>
    <i name="e_fr_energy">   -329.12312069 </i>
    <i name="e_wo_entrp">   -329.11094633 </i>
    <i name="e_0_energy">   -329.11906257 </i>
   </energy>
  </scstep>
  <scstep>
   <time name="dav">   27.35   27.39</time>
   <time name="total">   27.97   28.01</time>
   <energy>
    <i name="e_fr_energy">   -329.12082524 </i>
    <i name="e_wo_entrp">   -329.10821403 </i>
    <i name="e_0_energy">   -329.11662151 </i>
   </energy>
  </scstep>
  <scstep>
   <time name="dav">   24.53   24.57</time>
   <time name="total">   25.15   25.19</time>
   <energy>
    <i name="e_fr_energy">   -329.11996331 </i>
    <i name="e_wo_entrp">   -329.10779198 </i>
    <i name="e_0_energy">   -329.11590620 </i>
   </energy>
  </scstep>
  <scstep>
   <time name="dav">   23.32   23.35</time>
   <time name="total">   23.94   23.98</time>
   <energy>
    <i name="e_fr_energy">   -329.11993307 </i>
    <i name="e_wo_entrp">   -329.10762736 </i>
    <i name="e_0_energy">   -329.11583117 </i>
   </energy>
  </scstep>
  <scstep>
   <time name="dav">   22.58   22.61</time>
   <time name="total">   23.20   23.23</time>
   <energy>
    <i name="e_fr_energy">   -329.12007271 </i>
    <i name="e_wo_entrp">   -329.10768174 </i>
    <i name="e_0_energy">   -329.11594239 </i>
   </energy>
  </scstep>
  <scstep>
   <time name="dav">   22.72   22.75</time>
   <time name="total">   23.34   23.37</time>
   <energy>
    <i name="e_fr_energy">   -329.12016495 </i>
    <i name="e_wo_entrp">   -329.10794352 </i>
    <i name="e_0_energy">   -329.11609114 </i>
   </energy>
  </scstep>
  <scstep>
   <time name="dav">   23.00   23.03</time>
   <time name="total">   23.64   23.68</time>
   <energy>
    <i name="e_fr_energy">   -329.12019480 </i>
    <i name="e_wo_entrp">   -329.10786369 </i>
    <i name="e_0_energy">   -329.11608443 </i>
   </energy>
  </scstep>
  <scstep>
   <time name="dav">   17.44   17.47</time>
   <time name="total">   17.47   17.50</time>
   <energy>
    <i name="alphaZ">   1310.14888095 </i>
    <i name="ewald"> -11616.24270462 </i>
    <i name="hartreedc">  -2955.76031252 </i>
    <i name="XCdc">   -850.92423953 </i>
    <i name="pawpsdc">  21078.31529200 </i>
    <i name="pawaedc"> -19573.94492881 </i>
    <i name="eentropy">     -0.01228051 </i>
    <i name="bandstr">   -726.91758471 </i>
    <i name="atom">  13006.21773402 </i>
    <i name="e_fr_energy">   -329.12014373 </i>
    <i name="e_wo_entrp">   -329.10786322 </i>
    <i name="e_0_energy">   -329.11605022 </i>
   </energy>
  </scstep>
  <structure>
   <crystal>
    <varray name="basis" >
     <v>      -3.17007768      -3.13626019      -3.17585915 </v>
     <v>       1.55303629       1.61317736      -7.95269447 </v>
     <v>       7.97678516      -7.95426728      -1.52590632 </v>
    </varray>
    <i name="volume">    479.95720281 </i>
    <varray name="rec_basis" >
     <v>      -0.13692766      -0.12723457      -0.05254892 </v>
     <v>       0.04266212       0.06286058      -0.10466125 </v>
     <v>       0.06264088      -0.06280327      -0.00050665 </v>
    </varray>
   </crystal>
   <varray name="positions" >
    <v>       0.96247943       0.93363174       0.39764936 </v>
    <v>       0.63340564       0.26812324       0.40380422 </v>
    <v>       0.49907647       0.00313843      -0.00094424 </v>
    <v>      -0.00270961       0.00234276       0.00171957 </v>
    <v>       0.09801084       0.20676339       0.79862340 </v>
    <v>       0.03066928       0.07302298       0.59677611 </v>
    <v>       0.90238258       0.79753632       0.20306633 </v>
    <v>       0.80312689       0.59255820       0.39913019 </v>
    <v>       0.73337587       0.46593186       0.19982860 </v>
    <v>       0.66351451       0.34005641      -0.00199563 </v>
    <v>       0.37218552       0.72570421       0.59990110 </v>
    <v>       0.13510880       0.27284908       0.39815490 </v>
    <v>       0.83551060       0.66235999       0.00312095 </v>
    <v>       0.92951626       0.87046291       0.79831080 </v>
    <v>       0.56767932       0.13387441       0.19625776 </v>
    <v>       0.40675033       0.79293410       0.19850374 </v>
    <v>       0.43842831       0.85770103       0.79506582 </v>
    <v>       0.29695480       0.60354102       0.40298414 </v>
    <v>       0.86480061       0.73623929       0.59902070 </v>
    <v>       0.46528437       0.93133872       0.40568485 </v>
    <v>       0.17014478       0.33452590       0.00059466 </v>
    <v>       0.26515554       0.53573335       0.79994889 </v>
    <v>       0.20287977       0.39507946       0.59811373 </v>
    <v>       0.06195693       0.14181022       0.20494400 </v>
    <v>       0.76811996       0.52764836       0.80077760 </v>
    <v>       0.59740175       0.20194557       0.79768004 </v>
    <v>       0.53315068       0.06718748       0.60276215 </v>
    <v>       0.33505171       0.65792172       0.00049524 </v>
    <v>       0.23058806       0.46803784       0.20002101 </v>
   </varray>
  </structure>
  <varray name="forces" >
   <v>       0.02633714       0.15084441      -0.04934292 </v>
   <v>       0.08538194      -0.08081504      -0.14674778 </v>
   <v>      -0.26350277       0.11836142       0.27509177 </v>
   <v>      -0.00429774      -0.02235908      -0.01918710 </v>
   <v>      -0.04884599       0.00779230       0.08648345 </v>
   <v>       0.08175479       0.25877982      -0.28161185 </v>
   <v>      -0.02803094       0.02126953      -0.00487436 </v>
   <v>       0.00998737      -0.11735870       0.13363378 </v>
   <v>       0.11137515      -0.10454987       0.08884762 </v>
   <v>      -0.08289070       0.02724837       0.02374990 </v>
   <v>      -0.21968750      -0.19013890       0.28027896 </v>
   <v>       0.05218788      -0.04389299      -0.06364023 </v>
   <v>       0.04895157       0.15254565      -0.20754927 </v>
   <v>       0.06934599       0.00189248      -0.11852677 </v>
   <v>       0.11291686      -0.06553244       0.01602792 </v>
   <v>       0.03600545      -0.06403518      -0.09179492 </v>
   <v>       0.03899137       0.03479583       0.17868040 </v>
   <v>       0.03321334      -0.10276480      -0.04345185 </v>
   <v>      -0.08100105       0.02495718      -0.03969289 </v>
   <v>       0.11991998      -0.13975021       0.11264039 </v>
   <v>      -0.03097182      -0.05405677      -0.06109625 </v>
   <v>       0.05271563       0.11012467       0.10294032 </v>
   <v>      -0.18417953       0.08470956       0.10545189 </v>
   <v>       0.28584131      -0.09371986      -0.28103837 </v>
   <v>      -0.12022306       0.02214688       0.11660387 </v>
   <v>      -0.12408524       0.11765458      -0.04209813 </v>
   <v>       0.05480476      -0.01053882       0.03038517 </v>
   <v>      -0.04470882       0.12192558      -0.05840085 </v>
   <v>       0.01269462      -0.16553560      -0.04176190 </v>
  </varray>
  <varray name="stress" >
   <v>      10.89518111      -1.49007163       0.39627339 </v>
   <v>      -1.49007155       9.66470780      -0.81934332 </v>
   <v>       0.39627333      -0.81934331       9.13004084 </v>
  </varray>
  <energy>
   <i name="e_fr_energy">   -329.12014373 </i>
   <i name="e_wo_entrp">   -329.11605022 </i>
   <i name="e_0_energy">     -0.01228051 </i>
  </energy>
  <time name="totalsc">  329.60  330.10</time>
 </calculation>
 <calculation>
  <scstep>
   <time name="dav">   18.25   18.27</time>
   <time name="total">   18.87   18.90</time>
   <energy>
    <i name="alphaZ">   1304.03334474 </i>
    <i name="ewald"> -11608.27346017 </i>
    <i name="hartreedc">  -2940.90085195 </i>
    <i name="XCdc">   -851.56800449 </i>
    <i name="pawpsdc">  21078.52927686 </i>
    <i name="pawaedc"> -19574.18525281 </i>
    <i name="eentropy">     -0.01046223 </i>
    <i name="bandstr">   -742.97458365 </i>
    <i name="atom">  13006.21773402 </i>
    <i name="e_fr_energy">   -329.13225968 </i>
    <i name="e_wo_entrp">   -329.12179745 </i>
    <i name="e_0_energy">   -329.12877227 </i>
   </energy>
  </scstep>
  <scstep>
   <time name="dav">   24.23   24.26</time>
   <time name="total">   24.85   24.89</time>
   <energy>
    <i name="e_fr_energy">   -329.15865051 </i>
    <i name="e_wo_entrp">   -329.14758993 </i>
    <i name="e_0_energy">   -329.15496365 </i>
   </energy>
  </scstep>
  <scstep>
   <time name="dav">   24.87   24.90</time>
   <time name="total">   25.49   25.52</time>
   <energy>
    <i name="e_fr_energy">   -329.15637937 </i>
    <i name="e_wo_entrp">   -329.14541732 </i>
    <i name="e_0_energy">   -329.15272535 </i>
   </energy>
  </scstep>
  <scstep>
   <time name="dav">   24.54   24.57</time>
   <time name="total">   25.16   25.19</time>
   <energy>
    <i name="e_fr_energy">   -329.14470909 </i>
    <i name="e_wo_entrp">   -329.13389606 </i>
    <i name="e_0_energy">   -329.14110475 </i>
   </energy>
  </scstep>
  <scstep>
   <time name="dav">   25.19   25.22</time>
   <time name="total">   25.82   25.86</time>
   <energy>
    <i name="e_fr_energy">   -329.14240280 </i>
    <i name="e_wo_entrp">   -329.13127571 </i>
    <i name="e_0_energy">   -329.13869377 </i>
   </energy>
  </scstep>
  <scstep>
   <time name="dav">   25.76   25.79</time>
   <time name="total">   26.38   26.41</time>
   <energy>
    <i name="e_fr_energy">   -329.14170759 </i>
    <i name="e_wo_entrp">   -329.13069989 </i>
    <i name="e_0_energy">   -329.13803836 </i>
   </energy>
  </scstep>
  <scstep>
   <time name="dav">   25.43   25.46</time>
   <time name="total">   26.05   26.08</time>
   <energy>
    <i name="e_fr_energy">   -329.14136496 </i>
    <i name="e_wo_entrp">   -329.13022538 </i>
    <i name="e_0_energy">   -329.13765177 </i>
   </energy>
  </scstep>
  <scstep>
   <time name="dav">   22.88   22.91</time>
   <time name="total">   23.50   23.54</time>
   <energy>
    <i name="e_fr_energy">   -329.14123911 </i>
    <i name="e_wo_entrp">   -329.13027056 </i>
    <i name="e_0_energy">   -329.13758293 </i>
   </energy>
  </scstep>
  <scstep>
   <time name="dav">   18.84   18.86</time>
   <time name="total">   18.87   18.89</time>
   <energy>
    <i name="alphaZ">   1304.03334474 </i>
    <i name="ewald"> -11608.27346017 </i>
    <i name="hartreedc">  -2949.11395454 </i>
    <i name="XCdc">   -851.30346560 </i>
    <i name="pawpsdc">  20934.53287091 </i>
    <i name="pawaedc"> -19429.96579955 </i>
    <i name="eentropy">     -0.01103275 </i>
    <i name="bandstr">   -735.25746830 </i>
    <i name="atom">  13006.21773402 </i>
    <i name="e_fr_energy">   -329.14123123 </i>
    <i name="e_wo_entrp">   -329.13019848 </i>
    <i name="e_0_energy">   -329.13755365 </i>
   </energy>
  </scstep>
  <structure>
   <crystal>
    <varray name="basis" >
     <v>      -3.17430915      -3.13372708      -3.18092943 </v>
     <v>       1.54876310       1.62075470      -7.96782589 </v>
     <v>       7.99734670      -7.97019890      -1.51616098 </v>
    </varray>
    <i name="volume">    482.20806217 </i>
    <varray name="rec_basis" >
     <v>      -0.13679257      -0.12727554      -0.05247877 </v>
     <v>       0.04272306       0.06273590      -0.10443910 </v>
     <v>       0.06247199      -0.06266766      -0.00060425 </v>
    </varray>
   </crystal>
   <varray name="positions" >
    <v>       0.96159661       0.93374538       0.39717563 </v>
    <v>       0.63345784       0.26846760       0.40459266 </v>
    <v>       0.49886544       0.00363223      -0.00119161 </v>
    <v>      -0.00318639       0.00281641       0.00204363 </v>
    <v>       0.09760791       0.20804002       0.79833698 </v>
    <v>       0.03000742       0.07446217       0.59611644 </v>
    <v>       0.90283580       0.79708621       0.20364599 </v>
    <v>       0.80371850       0.59104663       0.39903745 </v>
    <v>       0.73339324       0.46571534       0.19984513 </v>
    <v>       0.66291353       0.34132848      -0.00238853 </v>
    <v>       0.37344108       0.72400682       0.59987226 </v>
    <v>       0.13541519       0.27403636       0.39784525 </v>
    <v>       0.83593176       0.66164233       0.00368331 </v>
    <v>       0.92883141       0.87119922       0.79799909 </v>
    <v>       0.56781937       0.13396260       0.19559557 </v>
    <v>       0.40807579       0.79164013       0.19825746 </v>
    <v>       0.43930012       0.85596670       0.79414110 </v>
    <v>       0.29643332       0.60418912       0.40363222 </v>
    <v>       0.86447939       0.73677872       0.59880236 </v>
    <v>       0.46501853       0.93091502       0.40681379 </v>
    <v>       0.17087303       0.33474351       0.00070520 </v>
    <v>       0.26480358       0.53617844       0.79990822 </v>
    <v>       0.20344076       0.39412357       0.59770771 </v>
    <v>       0.06101939       0.14355182       0.20596694 </v>
    <v>       0.76844371       0.52646959       0.80083467 </v>
    <v>       0.59688659       0.20242453       0.79715978 </v>
    <v>       0.53308972       0.06729562       0.60328065 </v>
    <v>       0.33536407       0.65627457       0.00052464 </v>
    <v>       0.23012329       0.46826087       0.20005601 </v>
   </varray>
  </structure>
  <varray name="forces" >
   <v>       0.05285855       0.08900907      -0.09258961 </v>
   <v>       0.00837089      -0.01655602      -0.12545880 </v>
   <v>      -0.32902060       0.09026878       0.36287909 </v>
   <v>      -0.05175328      -0.02085532       0.01780705 </v>
   <v>      -0.07204274      -0.07014689       0.21619829 </v>
   <v>       0.10684906       0.17897049      -0.22296583 </v>
   <v>      -0.06954169       0.11277774      -0.01465264 </v>
   <v>       0.05556811      -0.08034510       0.01088283 </v>
   <v>       0.15095462      -0.11075125       0.06864385 </v>
   <v>      -0.12166404      -0.05832728       0.13071435 </v>
   <v>      -0.17085888      -0.13926741       0.20195659 </v>
   <v>       0.07973611      -0.10517852       0.04046890 </v>
   <v>       0.04797231       0.26608810      -0.29555031 </v>
   <v>       0.07394753      -0.07105754      -0.11722571 </v>
   <v>       0.19895952      -0.13559773       0.02387044 </v>
   <v>       0.13023382      -0.02335553      -0.16700526 </v>
   <v>       0.18379321       0.03828154       0.08296253 </v>
   <v>      -0.04439903      -0.06816660       0.01148057 </v>
   <v>      -0.10560436      -0.01820723      -0.01519085 </v>
   <v>       0.03805361      -0.05831389       0.11918068 </v>
   <v>      -0.02961231      -0.02303806      -0.02845248 </v>
   <v>       0.05314932       0.10462718       0.16007486 </v>
   <v>      -0.14342299       0.10852808       0.05435299 </v>
   <v>       0.17374305      -0.09148829      -0.19276170 </v>
   <v>      -0.08913940       0.05740330       0.01945446 </v>
   <v>      -0.12823973       0.04434595      -0.01595633 </v>
   <v>       0.01049953       0.03396744       0.05595622 </v>
   <v>      -0.00026655       0.19210826      -0.23535102 </v>
   <v>      -0.00912365      -0.22572328      -0.05372315 </v>
  </varray>
  <varray name="stress" >
   <v>       2.41444467      -0.34932147      -0.43535502 </v>
   <v>      -0.34932151       1.63856330       0.27986068 </v>
   <v>      -0.43535499       0.27986070       0.23531164 </v>
  </varray>
  <energy>
   <i name="e_fr_energy">   -329.14123123 </i>
   <i name="e_wo_entrp">   -329.13755365 </i>
   <i name="e_0_energy">     -0.01103275 </i>
  </energy>
  <time name="totalsc">  232.71  233.04</time>
 </calculation>
 <calculation>
  <scstep>
   <time name="dav">   19.17   19.22</time>
   <time name="total">   19.79   19.84</time>
   <energy>
    <i name="alphaZ">   1302.01888771 </i>
    <i name="ewald"> -11599.84569890 </i>
    <i name="hartreedc">  -2949.96978719 </i>
    <i name="XCdc">   -851.50297739 </i>
    <i name="pawpsdc">  20933.13777141 </i>
    <i name="pawaedc"> -19428.67934960 </i>
    <i name="eentropy">     -0.00959952 </i>
    <i name="bandstr">   -740.52584205 </i>
    <i name="atom">  13006.21773402 </i>
    <i name="e_fr_energy">   -329.15886149 </i>
    <i name="e_wo_entrp">   -329.14926198 </i>
    <i name="e_0_energy">   -329.15566166 </i>
   </energy>
  </scstep>
  <scstep>
   <time name="dav">   24.07   24.13</time>
   <time name="total">   24.69   24.75</time>
   <energy>
    <i name="e_fr_energy">   -329.17677335 </i>
    <i name="e_wo_entrp">   -329.16657056 </i>
    <i name="e_0_energy">   -329.17337242 </i>
   </energy>
  </scstep>
  <scstep>
   <time name="dav">   24.78   24.84</time>
   <time name="total">   25.40   25.46</time>
   <energy>
    <i name="e_fr_energy">   -329.17304901 </i>
    <i name="e_wo_entrp">   -329.16357058 </i>
    <i name="e_0_energy">   -329.16988953 </i>
   </energy>
  </scstep>
  <scstep>
   <time name="dav">   25.00   25.06</time>
   <time name="total">   25.63   25.69</time>
   <energy>
    <i name="e_fr_energy">   -329.17201584 </i>
    <i name="e_wo_entrp">   -329.16223703 </i>
    <i name="e_0_energy">   -329.16875624 </i>
   </energy>
  </scstep>
  <scstep>
   <time name="dav">   24.37   24.43</time>
   <time name="total">   24.99   25.05</time>
   <energy>
    <i name="e_fr_energy">   -329.17147181 </i>
    <i name="e_wo_entrp">   -329.16168950 </i>
    <i name="e_0_energy">   -329.16821104 </i>
   </energy>
  </scstep>
  <scstep>
   <time name="dav">   25.33   25.39</time>
   <time name="total">   25.95   26.01</time>
   <energy>
    <i name="e_fr_energy">   -329.17163660 </i>
    <i name="e_wo_entrp">   -329.16195711 </i>
    <i name="e_0_energy">   -329.16841010 </i>
   </energy>
  </scstep>
  <scstep>
   <time name="dav">   24.19   24.25</time>
   <time name="total">   24.82   24.88</time>
   <energy>
    <i name="e_fr_energy">   -329.17114566 </i>
    <i name="e_wo_entrp">   -329.16142885 </i>
    <i name="e_0_energy">   -329.16790673 </i>
   </energy>
  </scstep>
  <scstep>
   <time name="dav">   18.97   19.02</time>
   <time name="total">   19.00   19.05</time>
   <energy>
    <i name="alphaZ">   1302.01888771 </i>
    <i name="ewald"> -11599.84569890 </i>
    <i name="hartreedc">  -2952.81369586 </i>
    <i name="XCdc">   -851.42061454 </i>
    <i name="pawpsdc">  20874.75192915 </i>
    <i name="pawaedc"> -19370.34580175 </i>
    <i name="eentropy">     -0.00973094 </i>
    <i name="bandstr">   -737.72408058 </i>
    <i name="atom">  13006.21773402 </i>
    <i name="e_fr_energy">   -329.17107168 </i>
    <i name="e_wo_entrp">   -329.16134074 </i>
    <i name="e_0_energy">   -329.16782804 </i>
   </energy>
  </scstep>
  <structure>
   <crystal>
    <varray name="basis" >
     <v>      -3.17607376      -3.13491062      -3.18137570 </v>
     <v>       1.55029701       1.62128912      -7.96953872 </v>
     <v>       8.00523793      -7.97593639      -1.51712514 </v>
    </varray>
    <i name="volume">    482.95412463 </i>
    <varray name="rec_basis" >
     <v>      -0.13670912      -0.12722960      -0.05247678 </v>
     <v>       0.04269225       0.06271024      -0.10441544 </v>
     <v>       0.06241115      -0.06262276      -0.00059900 </v>
    </varray>
   </crystal>
   <varray name="positions" >
    <v>       0.96116252       0.93422525       0.39708093 </v>
    <v>       0.63366493       0.26882749       0.40469483 </v>
    <v>       0.49923955       0.00242225      -0.00192143 </v>
    <v>      -0.00298466       0.00270654       0.00201537 </v>
    <v>       0.09777833       0.20732484       0.79830959 </v>
    <v>       0.02926668       0.07562039       0.59594926 </v>
    <v>       0.90275968       0.79720477       0.20338168 </v>
    <v>       0.80381750       0.59083278       0.39925940 </v>
[...]
       <r>    4.5609    1.0000 </r>
       <r>    4.6616    1.0000 </r>
       <r>    4.6962    1.0000 </r>
       <r>    4.7182    1.0000 </r>
       <r>    4.7627    1.0000 </r>
       <r>    4.8290    1.0000 </r>
       <r>    4.8623    1.0000 </r>
       <r>    4.9222    1.0000 </r>
       <r>    4.9936    1.0000 </r>
       <r>    5.0722    1.0000 </r>
       <r>    5.1304    1.0000 </r>
       <r>    5.1884    1.0000 </r>
       <r>    5.2298    1.0000 </r>
       <r>    5.2791    1.0000 </r>
       <r>    5.3342    1.0000 </r>
       <r>    5.3844    1.0000 </r>
       <r>    5.4197    1.0000 </r>
       <r>    5.4578    1.0000 </r>
       <r>    5.5543    1.0000 </r>
       <r>    5.5796    1.0000 </r>
       <r>    5.6833    1.0000 </r>
       <r>    5.7278    1.0000 </r>
       <r>    5.7847    1.0000 </r>
       <r>    5.8737    1.0000 </r>
       <r>    5.9354    1.0000 </r>
       <r>    5.9803    1.0000 </r>
       <r>    6.0403    1.0000 </r>
       <r>    6.0721    1.0001 </r>
       <r>    6.1167    1.0002 </r>
       <r>    6.1644    1.0006 </r>
       <r>    6.2083    1.0017 </r>
       <r>    6.2849    1.0073 </r>
       <r>    6.3286    1.0140 </r>
       <r>    6.3435    1.0170 </r>
       <r>    6.3910    1.0277 </r>
       <r>    6.4433    1.0354 </r>
       <r>    6.4945    1.0231 </r>
       <r>    6.5387    0.9791 </r>
       <r>    6.6270    0.7552 </r>
       <r>    6.6572    0.6397 </r>
       <r>    6.7190    0.3816 </r>
       <r>    6.8392    0.0262 </r>
       <r>    6.9520   -0.0345 </r>
       <r>    7.0655   -0.0118 </r>
       <r>    7.1418   -0.0032 </r>
       <r>    7.2286   -0.0005 </r>
       <r>    7.3233   -0.0000 </r>
       <r>    7.4602   -0.0000 </r>
       <r>    7.6932   -0.0000 </r>
       <r>    7.7890   -0.0000 </r>
       <r>    7.8292   -0.0000 </r>
       <r>    8.0017   -0.0000 </r>
       <r>    8.1154   -0.0000 </r>
       <r>    8.1824   -0.0000 </r>
       <r>    8.5093   -0.0000 </r>
       <r>    8.6321   -0.0000 </r>
       <r>    8.6736   -0.0000 </r>
       <r>    8.7953   -0.0000 </r>
       <r>    8.8648   -0.0000 </r>
       <r>    8.9067   -0.0000 </r>
       <r>    9.0150   -0.0000 </r>
      </set>
     </set>
    </set>
   </array>
  </eigenvalues>
  <separator name="orbital magnetization" >
   <v name="MAGDIPOLOUT">      0.00000000      0.00000000      0.00000000</v>
  </separator>
  <dos>
   <i name="efermi">      6.69074268 </i>
   <total>
    <array>
     <dimension dim="1">gridpoints</dimension>
     <dimension dim="2">spin</dimension>
     <field>energy</field>
     <field>total</field>
     <field>integrated</field>
     <set>
      <set comment="spin 1">
       <r>   -50.3055     0.0000     0.0000 </r>
       <r>   -50.0976     0.0000     0.0000 </r>
       <r>   -49.8898     0.0000     0.0000 </r>
       <r>   -49.6820     0.0000     0.0000 </r>
       <r>   -49.4741     0.0000     0.0000 </r>
       <r>   -49.2663    -0.0000    -0.0000 </r>
       <r>   -49.0585    -0.0000    -0.0000 </r>
       <r>   -48.8506    -0.0000    -0.0000 </r>
       <r>   -48.6428    -0.0000    -0.0000 </r>
       <r>   -48.4350    -0.0000    -0.0000 </r>
       <r>   -48.2272    -0.0000    -0.0000 </r>
       <r>   -48.0193    -0.0050    -0.0011 </r>
       <r>   -47.8115    -0.3196    -0.0675 </r>
       <r>   -47.6037     0.3544     0.0062 </r>
       <r>   -47.3958    16.9023     3.5190 </r>
       <r>   -47.1880    24.2374     8.5562 </r>
       <r>   -46.9802    16.7855    12.0448 </r>
       <r>   -46.7723     0.0791    12.0612 </r>
       <r>   -46.5645    -0.2903    12.0009 </r>
       <r>   -46.3567    -0.0042    12.0000 </r>
       <r>   -46.1489    -0.0000    12.0000 </r>
       <r>   -45.9410    -0.0000    12.0000 </r>
       <r>   -45.7332    -0.0000    12.0000 </r>
       <r>   -45.5254     0.0000    12.0000 </r>
       <r>   -45.3175     0.0000    12.0000 </r>
       <r>   -45.1097     0.0000    12.0000 </r>
       <r>   -44.9019     0.0000    12.0000 </r>
       <r>   -44.6940     0.0000    12.0000 </r>
       <r>   -44.4862     0.0000    12.0000 </r>
       <r>   -44.2784     0.0000    12.0000 </r>
       <r>   -44.0706     0.0000    12.0000 </r>
       <r>   -43.8627     0.0000    12.0000 </r>
       <r>   -43.6549     0.0000    12.0000 </r>
       <r>   -43.4471     0.0000    12.0000 </r>
       <r>   -43.2392     0.0000    12.0000 </r>
       <r>   -43.0314     0.0000    12.0000 </r>
       <r>   -42.8236     0.0000    12.0000 </r>
       <r>   -42.6157     0.0000    12.0000 </r>
       <r>   -42.4079     0.0000    12.0000 </r>
       <r>   -42.2001     0.0000    12.0000 </r>
       <r>   -41.9923     0.0000    12.0000 </r>
       <r>   -41.7844     0.0000    12.0000 </r>
       <r>   -41.5766     0.0000    12.0000 </r>
       <r>   -41.3688     0.0000    12.0000 </r>
       <r>   -41.1609     0.0000    12.0000 </r>
       <r>   -40.9531     0.0000    12.0000 </r>
       <r>   -40.7453     0.0000    12.0000 </r>
       <r>   -40.5374     0.0000    12.0000 </r>
       <r>   -40.3296     0.0000    12.0000 </r>
       <r>   -40.1218     0.0000    12.0000 </r>
       <r>   -39.9140     0.0000    12.0000 </r>
       <r>   -39.7061     0.0000    12.0000 </r>
       <r>   -39.4983     0.0000    12.0000 </r>
       <r>   -39.2905     0.0000    12.0000 </r>
       <r>   -39.0826     0.0000    12.0000 </r>
       <r>   -38.8748     0.0000    12.0000 </r>
       <r>   -38.6670     0.0000    12.0000 </r>
       <r>   -38.4591     0.0000    12.0000 </r>
       <r>   -38.2513     0.0000    12.0000 </r>
       <r>   -38.0435     0.0000    12.0000 </r>
       <r>   -37.8357     0.0000    12.0000 </r>
       <r>   -37.6278     0.0000    12.0000 </r>
       <r>   -37.4200     0.0000    12.0000 </r>
       <r>   -37.2122     0.0000    12.0000 </r>
       <r>   -37.0043     0.0000    12.0000 </r>
       <r>   -36.7965     0.0000    12.0000 </r>
       <r>   -36.5887     0.0000    12.0000 </r>
       <r>   -36.3808     0.0000    12.0000 </r>
       <r>   -36.1730     0.0000    12.0000 </r>
       <r>   -35.9652     0.0000    12.0000 </r>
       <r>   -35.7574     0.0000    12.0000 </r>
       <r>   -35.5495     0.0000    12.0000 </r>
       <r>   -35.3417     0.0000    12.0000 </r>
       <r>   -35.1339     0.0000    12.0000 </r>
       <r>   -34.9260     0.0000    12.0000 </r>
       <r>   -34.7182     0.0000    12.0000 </r>
       <r>   -34.5104     0.0000    12.0000 </r>
       <r>   -34.3025     0.0000    12.0000 </r>
       <r>   -34.0947     0.0000    12.0000 </r>
       <r>   -33.8869     0.0000    12.0000 </r>
       <r>   -33.6791     0.0000    12.0000 </r>
       <r>   -33.4712     0.0000    12.0000 </r>
       <r>   -33.2634     0.0000    12.0000 </r>
       <r>   -33.0556     0.0000    12.0000 </r>
       <r>   -32.8477     0.0000    12.0000 </r>
       <r>   -32.6399     0.0000    12.0000 </r>
       <r>   -32.4321     0.0000    12.0000 </r>
       <r>   -32.2242     0.0000    12.0000 </r>
       <r>   -32.0164     0.0000    12.0000 </r>
       <r>   -31.8086     0.0000    12.0000 </r>
       <r>   -31.6008     0.0000    12.0000 </r>
       <r>   -31.3929     0.0000    12.0000 </r>
       <r>   -31.1851     0.0000    12.0000 </r>
       <r>   -30.9773     0.0000    12.0000 </r>
       <r>   -30.7694     0.0000    12.0000 </r>
       <r>   -30.5616     0.0000    12.0000 </r>
       <r>   -30.3538     0.0000    12.0000 </r>
       <r>   -30.1459     0.0000    12.0000 </r>
       <r>   -29.9381     0.0000    12.0000 </r>
       <r>   -29.7303     0.0000    12.0000 </r>
       <r>   -29.5224     0.0000    12.0000 </r>
       <r>   -29.3146     0.0000    12.0000 </r>
       <r>   -29.1068     0.0000    12.0000 </r>
       <r>   -28.8990     0.0000    12.0000 </r>
       <r>   -28.6911     0.0000    12.0000 </r>
       <r>   -28.4833     0.0000    12.0000 </r>
       <r>   -28.2755     0.0000    12.0000 </r>
       <r>   -28.0676     0.0000    12.0000 </r>
       <r>   -27.8598     0.0000    12.0000 </r>
       <r>   -27.6520     0.0000    12.0000 </r>
       <r>   -27.4441     0.0000    12.0000 </r>
       <r>   -27.2363     0.0000    12.0000 </r>
       <r>   -27.0285     0.0000    12.0000 </r>
       <r>   -26.8207     0.0000    12.0000 </r>
       <r>   -26.6128     0.0000    12.0000 </r>
       <r>   -26.4050     0.0000    12.0000 </r>
       <r>   -26.1972     0.0000    12.0000 </r>
       <r>   -25.9893     0.0000    12.0000 </r>
       <r>   -25.7815    -0.0000    12.0000 </r>
       <r>   -25.5737    -0.0000    12.0000 </r>
       <r>   -25.3658    -0.0000    12.0000 </r>
       <r>   -25.1580    -0.0000    12.0000 </r>
       <r>   -24.9502    -0.0000    12.0000 </r>
       <r>   -24.7424    -0.0001    12.0000 </r>
       <r>   -24.5345    -0.0219    11.9954 </r>
       <r>   -24.3267    -0.3265    11.9276 </r>
       <r>   -24.1189     2.2160    12.3881 </r>
       <r>   -23.9110    11.2888    14.7343 </r>
       <r>   -23.7032    22.8703    19.4874 </r>
       <r>   -23.4954    42.6609    28.3536 </r>
       <r>   -23.2875    45.5384    37.8179 </r>
       <r>   -23.0797    34.5000    44.9880 </r>
       <r>   -22.8719    11.6005    47.3990 </r>
       <r>   -22.6641     2.8818    47.9979 </r>
       <r>   -22.4562     0.0841    48.0154 </r>
       <r>   -22.2484    -0.0718    48.0004 </r>
       <r>   -22.0406    -0.0020    48.0000 </r>
       <r>   -21.8327    -0.0000    48.0000 </r>
       <r>   -21.6249    -0.0000    48.0000 </r>
       <r>   -21.4171    -0.0000    48.0000 </r>
       <r>   -21.2092     0.0000    48.0000 </r>
       <r>   -21.0014     0.0000    48.0000 </r>
       <r>   -20.7936     0.0000    48.0000 </r>
       <r>   -20.5858     0.0000    48.0000 </r>
       <r>   -20.3779     0.0000    48.0000 </r>
       <r>   -20.1701     0.0000    48.0000 </r>
       <r>   -19.9623     0.0000    48.0000 </r>
       <r>   -19.7544     0.0000    48.0000 </r>
       <r>   -19.5466     0.0000    48.0000 </r>
       <r>   -19.3388     0.0000    48.0000 </r>
       <r>   -19.1309     0.0000    48.0000 </r>
       <r>   -18.9231     0.0000    48.0000 </r>
       <r>   -18.7153     0.0000    48.0000 </r>
       <r>   -18.5075     0.0000    48.0000 </r>
       <r>   -18.2996     0.0000    48.0000 </r>
       <r>   -18.0918     0.0000    48.0000 </r>
       <r>   -17.8840     0.0000    48.0000 </r>
       <r>   -17.6761     0.0000    48.0000 </r>
       <r>   -17.4683     0.0000    48.0000 </r>
       <r>   -17.2605     0.0000    48.0000 </r>
       <r>   -17.0526     0.0000    48.0000 </r>
       <r>   -16.8448     0.0000    48.0000 </r>
       <r>   -16.6370     0.0000    48.0000 </r>
       <r>   -16.4292     0.0000    48.0000 </r>
       <r>   -16.2213     0.0000    48.0000 </r>
       <r>   -16.0135     0.0000    48.0000 </r>
       <r>   -15.8057     0.0000    48.0000 </r>
       <r>   -15.5978     0.0000    48.0000 </r>
       <r>   -15.3900     0.0000    48.0000 </r>
       <r>   -15.1822     0.0000    48.0000 </r>
       <r>   -14.9743     0.0000    48.0000 </r>
       <r>   -14.7665     0.0000    48.0000 </r>
       <r>   -14.5587     0.0000    48.0000 </r>
       <r>   -14.3509     0.0000    48.0000 </r>
       <r>   -14.1430     0.0000    48.0000 </r>
       <r>   -13.9352     0.0000    48.0000 </r>
       <r>   -13.7274     0.0000    48.0000 </r>
       <r>   -13.5195     0.0000    48.0000 </r>
       <r>   -13.3117     0.0000    48.0000 </r>
       <r>   -13.1039     0.0000    48.0000 </r>
       <r>   -12.8960     0.0000    48.0000 </r>
       <r>   -12.6882     0.0000    48.0000 </r>
       <r>   -12.4804     0.0000    48.0000 </r>
       <r>   -12.2726     0.0000    48.0000 </r>
       <r>   -12.0647     0.0000    48.0000 </r>
       <r>   -11.8569     0.0000    48.0000 </r>
       <r>   -11.6491     0.0000    48.0000 </r>
       <r>   -11.4412     0.0000    48.0000 </r>
       <r>   -11.2334     0.0000    48.0000 </r>
       <r>   -11.0256     0.0000    48.0000 </r>
       <r>   -10.8177     0.0000    48.0000 </r>
       <r>   -10.6099     0.0000    48.0000 </r>
       <r>   -10.4021     0.0000    48.0000 </r>
       <r>   -10.1942     0.0000    48.0000 </r>
       <r>    -9.9864     0.0000    48.0000 </r>
       <r>    -9.7786     0.0000    48.0000 </r>
       <r>    -9.5708     0.0000    48.0000 </r>
       <r>    -9.3629     0.0000    48.0000 </r>
       <r>    -9.1551     0.0000    48.0000 </r>
       <r>    -8.9473     0.0000    48.0000 </r>
       <r>    -8.7394     0.0000    48.0000 </r>
       <r>    -8.5316     0.0000    48.0000 </r>
       <r>    -8.3238     0.0000    48.0000 </r>
       <r>    -8.1159     0.0000    48.0000 </r>
       <r>    -7.9081     0.0000    48.0000 </r>
       <r>    -7.7003     0.0000    48.0000 </r>
       <r>    -7.4925     0.0000    48.0000 </r>
       <r>    -7.2846     0.0000    48.0000 </r>
       <r>    -7.0768     0.0000    48.0000 </r>
       <r>    -6.8690     0.0000    48.0000 </r>
       <r>    -6.6611     0.0000    48.0000 </r>
       <r>    -6.4533     0.0000    48.0000 </r>
       <r>    -6.2455     0.0000    48.0000 </r>
       <r>    -6.0376     0.0000    48.0000 </r>
       <r>    -5.8298     0.0000    48.0000 </r>
       <r>    -5.6220     0.0000    48.0000 </r>
       <r>    -5.4142     0.0000    48.0000 </r>
       <r>    -5.2063     0.0000    48.0000 </r>
       <r>    -4.9985     0.0000    48.0000 </r>
       <r>    -4.7907     0.0000    48.0000 </r>
       <r>    -4.5828     0.0000    48.0000 </r>
       <r>    -4.3750     0.0000    48.0000 </r>
       <r>    -4.1672     0.0000    48.0000 </r>
       <r>    -3.9593     0.0000    48.0000 </r>
       <r>    -3.7515     0.0000    48.0000 </r>
       <r>    -3.5437     0.0000    48.0000 </r>
       <r>    -3.3359     0.0000    48.0000 </r>
       <r>    -3.1280     0.0000    48.0000 </r>
       <r>    -2.9202     0.0000    48.0000 </r>
       <r>    -2.7124     0.0000    48.0000 </r>
       <r>    -2.5045     0.0000    48.0000 </r>
       <r>    -2.2967    -0.0000    48.0000 </r>
       <r>    -2.0889    -0.0000    48.0000 </r>
       <r>    -1.8810    -0.0000    48.0000 </r>
       <r>    -1.6732    -0.0000    48.0000 </r>
       <r>    -1.4654    -0.0000    48.0000 </r>
       <r>    -1.2576    -0.0000    48.0000 </r>
       <r>    -1.0497    -0.0006    47.9999 </r>
       <r>    -0.8419    -0.0119    47.9974 </r>
       <r>    -0.6341     0.0449    48.0067 </r>
       <r>    -0.4262     0.5134    48.1134 </r>
       <r>    -0.2184     1.2037    48.3636 </r>
       <r>    -0.0106     1.8951    48.7575 </r>
       <r>     0.1973     1.5142    49.0721 </r>
       <r>     0.4051     1.2359    49.3290 </r>
       <r>     0.6129     2.5061    49.8498 </r>
       <r>     0.8207     3.4618    50.5693 </r>
       <r>     1.0286     2.8658    51.1649 </r>
       <r>     1.2364     2.4204    51.6679 </r>
       <r>     1.4442     4.5038    52.6040 </r>
       <r>     1.6521     3.8275    53.3994 </r>
       <r>     1.8599     5.4556    54.5333 </r>
       <r>     2.0677     7.8753    56.1700 </r>
       <r>     2.2756    10.0316    58.2549 </r>
       <r>     2.4834    15.2627    61.4269 </r>
       <r>     2.6912    18.0780    65.1841 </r>
       <r>     2.8990    22.0999    69.7771 </r>
       <r>     3.1069    25.7901    75.1371 </r>
       <r>     3.3147    27.2153    80.7932 </r>
       <r>     3.5225    29.6935    86.9644 </r>
       <r>     3.7304    30.7791    93.3612 </r>
       <r>     3.9382    30.4165    99.6827 </r>
       <r>     4.1460    28.1872   105.5409 </r>
       <r>     4.3539    25.5763   110.8564 </r>
       <r>     4.5617    28.3978   116.7583 </r>
       <r>     4.7695    34.7846   123.9876 </r>
       <r>     4.9773    39.8504   132.2697 </r>
       <r>     5.1852    40.2248   140.6296 </r>
       <r>     5.3930    37.5227   148.4280 </r>
       <r>     5.6008    36.4894   156.0116 </r>
       <r>     5.8087    37.0735   163.7166 </r>
       <r>     6.0165    39.3929   171.9036 </r>
       <r>     6.2243    40.8980   180.4034 </r>
       <r>     6.4322    40.3918   188.7980 </r>
       <r>     6.6400    36.1254   196.3060 </r>
       <r>     6.8478    31.8578   202.9270 </r>
       <r>     7.0556    25.8812   208.3059 </r>
       <r>     7.2635    19.4738   212.3531 </r>
       <r>     7.4713    16.3306   215.7471 </r>
       <r>     7.6791    15.1125   218.8879 </r>
       <r>     7.8870    15.8782   222.1879 </r>
       <r>     8.0948    19.0410   226.1452 </r>
       <r>     8.3026    20.5760   230.4215 </r>
       <r>     8.5105    19.1414   234.3996 </r>
       <r>     8.7183    14.1128   237.3327 </r>
       <r>     8.9261     8.1902   239.0349 </r>
       <r>     9.1340     3.9997   239.8662 </r>
       <r>     9.3418     0.7265   240.0171 </r>
       <r>     9.5496    -0.0705   240.0025 </r>
       <r>     9.7574    -0.0117   240.0000 </r>
       <r>     9.9653    -0.0001   240.0000 </r>
       <r>    10.1731    -0.0000   240.0000 </r>
       <r>    10.3809    -0.0000   240.0000 </r>
       <r>    10.5888    -0.0000   240.0000 </r>
       <r>    10.7966     0.0000   240.0000 </r>
       <r>    11.0044     0.0000   240.0000 </r>
       <r>    11.2123     0.0000   240.0000 </r>
       <r>    11.4201     0.0000   240.0000 </r>
       <r>    11.6279     0.0000   240.0000 </r>
       <r>    11.8357     0.0000   240.0000 </r>
       <r>    12.0436     0.0000   240.0000 </r>
      </set>
     </set>
    </array>
   </total>
  </dos>
 </calculation>
 <structure name="finalpos" >
  <crystal>
   <varray name="basis" >
    <v>      -3.17294756      -3.12403531      -3.17724687 </v>
    <v>       1.54551230       1.62339976      -7.96356077 </v>
    <v>       8.02270140      -7.98230507      -1.50693089 </v>
   </varray>
   <i name="volume">    482.35276396 </i>
   <varray name="rec_basis" >
    <v>      -0.13685818      -0.12762504      -0.05257729 </v>
    <v>       0.04281938       0.06275804      -0.10446843 </v>
    <v>       0.06227058      -0.06256507      -0.00066907 </v>
   </varray>
  </crystal>
  <varray name="positions" >
   <v>       0.96034316       0.93621654       0.39793374 </v>
   <v>       0.63428587       0.27048010       0.40637135 </v>
   <v>       0.50037583       0.00082648      -0.00343932 </v>
   <v>      -0.00346025       0.00357556       0.00247840 </v>
   <v>       0.09865285       0.20430023       0.79876086 </v>
   <v>       0.02405881       0.07908531       0.59650332 </v>
   <v>       0.90310013       0.79993919       0.20256241 </v>
   <v>       0.80498696       0.59218567       0.39967216 </v>
   <v>       0.73321499       0.46801392       0.20112419 </v>
   <v>       0.66376697       0.34036146      -0.00261433 </v>
   <v>       0.38419139       0.71255272       0.59977434 </v>
   <v>       0.13548887       0.27472121       0.39980491 </v>
   <v>       0.83498015       0.66499644       0.00194475 </v>
   <v>       0.92689040       0.87175746       0.79750452 </v>
   <v>       0.56755691       0.13455058       0.19779990 </v>
   <v>       0.40851530       0.79551077       0.19893347 </v>
   <v>       0.43635410       0.85413525       0.79321721 </v>
   <v>       0.29848341       0.60481623       0.40226444 </v>
   <v>       0.87045135       0.73386345       0.59806986 </v>
   <v>       0.46544674       0.92828701       0.40909369 </v>
   <v>       0.17130079       0.33547181       0.00149409 </v>
   <v>       0.25895926       0.53309563       0.79912269 </v>
   <v>       0.20026415       0.39303026       0.59523236 </v>
   <v>       0.05917476       0.14900213       0.20938080 </v>
   <v>       0.76584269       0.52415099       0.79858491 </v>
   <v>       0.59772557       0.20104320       0.79507623 </v>
   <v>       0.53057498       0.06533865       0.60332466 </v>
   <v>       0.33511048       0.65912659      -0.00075749 </v>
   <v>       0.23336337       0.46956516       0.20078187 </v>
  </varray>
 </structure>
</modeling>
