SQS with 1 vacancy for VFE and VRV      
           1
    -3.190000   -3.190000   -3.190000
     1.595000    1.595000   -7.975000
     7.975000   -7.975000   -1.595000
   Nb   Mo   Ta   Ti   W 
   6   6   6   6   5
Direct configuration=     1
   0.96666667  0.93333333  0.40000000
   0.63333333  0.26666667  0.40000000
   0.50000000  0.00000000  0.00000000
   0.00000000  0.00000000  0.00000000
   0.10000000  0.20000000  0.80000000
   0.03333333  0.06666667  0.60000000
   0.90000000  0.80000000  0.20000000
   0.80000000  0.60000000  0.40000000
   0.73333333  0.46666667  0.20000000
   0.66666667  0.33333333  0.00000000
   0.36666667  0.73333333  0.60000000
   0.13333333  0.26666667  0.40000000
   0.83333333  0.66666667  0.00000000
   0.93333333  0.86666667  0.80000000
   0.56666667  0.13333333  0.20000000
   0.40000000  0.80000000  0.20000000
   0.43333333  0.86666667  0.80000000
   0.30000000  0.60000000  0.40000000
   0.86666667  0.73333333  0.60000000
   0.46666667  0.93333333  0.40000000
   0.16666667  0.33333333  0.00000000
   0.26666667  0.53333333  0.80000000
   0.20000000  0.40000000  0.60000000
   0.06666667  0.13333333  0.20000000
   0.76666667  0.53333333  0.80000000
   0.60000000  0.20000000  0.80000000
   0.53333333  0.06666667  0.60000000
   0.33333333  0.66666667  0.00000000
   0.23333333  0.46666667  0.20000000
SQS with 1 vacancy for VFE and VRV      
           1
    -3.153543   -3.132956   -3.158004
     1.557252    1.594396   -7.903407
     7.916264   -7.902927   -1.540869
   Nb   Mo   Ta   Ti   W 
   6   6   6   6   5
Direct configuration=     2
   0.96424206  0.93335289  0.39858224
   0.63327329  0.26740123  0.40222748
   0.49951015  0.00230337 -0.00039516
  -0.00184394  0.00141344  0.00110348
   0.09879351  0.20433262  0.79920561
   0.03207910  0.07002204  0.59809606
   0.90153123  0.79838097  0.20195869
   0.80201176  0.59554587  0.39922219
   0.73333362  0.46642766  0.19974324
   0.66464687  0.33763085 -0.00122242
   0.36958709  0.72920582  0.59996053
   0.13455201  0.27056237  0.39871340
   0.83471373  0.66362750  0.00207368
   0.93076514  0.86904035  0.79889982
   0.56746120  0.13371331  0.19747422
   0.40419187  0.79534463  0.19893045
   0.43687358  0.86103235  0.79681350
   0.29788747  0.60233882  0.40165957
   0.86536940  0.73522183  0.59947558
   0.46580738  0.93220938  0.40346810
   0.16869118  0.33411756  0.00039007
   0.26589083  0.53489609  0.80006165
   0.20179978  0.39692095  0.59893726
   0.06378669  0.13835850  0.20290508
   0.76746031  0.53000520  0.80075852
   0.59839442  0.20091090  0.79876173
   0.53330054  0.06697703  0.60177708
   0.33448181  0.66105186  0.00049775
   0.23140789  0.46765462  0.19992062
SQS with 1 vacancy for VFE and VRV      
           1
    -3.159646   -3.142505   -3.163360
     1.563571    1.594498   -7.915392
     7.926096   -7.914992   -1.549931
   Nb   Mo   Ta   Ti   W 
   6   6   6   6   5
Direct configuration=     3
   0.96465456  0.93334972  0.39882206
   0.63328219  0.26727576  0.40185123
   0.49959414  0.00191434 -0.00032927
  -0.00153133  0.00117343  0.00091707
   0.09899991  0.20360079  0.79933824
   0.03229409  0.06945597  0.59841637
   0.90126961  0.79865375  0.20162839
   0.80166969  0.59629943  0.39935480
   0.73333368  0.46646820  0.19978667
   0.66499160  0.33690497 -0.00101735
   0.36909037  0.72990402  0.59996819
   0.13434697  0.26990539  0.39892875
   0.83447729  0.66414008  0.00172457
   0.93120239  0.86863924  0.79908514
   0.56732811  0.13365089  0.19790022
   0.40347989  0.79613302  0.19911190
   0.43627336  0.86198722  0.79735280
   0.29824553  0.60194205  0.40137899
   0.86559042  0.73490272  0.59956363
   0.46595066  0.93239688  0.40288336
   0.16834747  0.33398545  0.00032347
   0.26602287  0.53463181  0.80005080
   0.20149423  0.39744231  0.59911746
   0.06427487  0.13750691  0.20241338
   0.76732427  0.53056723  0.80063163
   0.59866800  0.20075729  0.79897072
   0.53330500  0.06692350  0.60147702
   0.33428514  0.66200046  0.00041571
   0.23173502  0.46748718  0.19993405
SQS with 1 vacancy for VFE and VRV      
           1
    -3.170078   -3.136260   -3.175859
     1.553036    1.613177   -7.952694
     7.976785   -7.954267   -1.525906
   Nb   Mo   Ta   Ti   W 
   6   6   6   6   5
Direct configuration=     4
   0.96247943  0.93363174  0.39764936
   0.63340564  0.26812324  0.40380422
   0.49907647  0.00313843 -0.00094424
  -0.00270961  0.00234276  0.00171957
   0.09801084  0.20676339  0.79862340
   0.03066928  0.07302298  0.59677611
   0.90238258  0.79753632  0.20306633
   0.80312689  0.59255820  0.39913019
   0.73337587  0.46593186  0.19982860
   0.66351451  0.34005641 -0.00199563
   0.37218552  0.72570421  0.59990110
   0.13510880  0.27284908  0.39815490
   0.83551060  0.66235999  0.00312095
   0.92951626  0.87046291  0.79831080
   0.56767932  0.13387441  0.19625776
   0.40675033  0.79293410  0.19850374
   0.43842831  0.85770103  0.79506582
   0.29695480  0.60354102  0.40298414
   0.86480061  0.73623929  0.59902070
   0.46528437  0.93133872  0.40568485
   0.17014478  0.33452590  0.00059466
   0.26515554  0.53573335  0.79994889
   0.20287977  0.39507946  0.59811373
   0.06195693  0.14181022  0.20494400
   0.76811996  0.52764836  0.80077760
   0.59740175  0.20194557  0.79768004
   0.53315068  0.06718748  0.60276215
   0.33505171  0.65792172  0.00049524
   0.23058806  0.46803784  0.20002101
SQS with 1 vacancy for VFE and VRV      
           1
    -3.174309   -3.133727   -3.180929
     1.548763    1.620755   -7.967826
     7.997347   -7.970199   -1.516161
   Nb   Mo   Ta   Ti   W 
   6   6   6   6   5
Direct configuration=     5
   0.96159661  0.93374538  0.39717563
   0.63345784  0.26846760  0.40459266
   0.49886544  0.00363223 -0.00119161
  -0.00318639  0.00281641  0.00204363
   0.09760791  0.20804002  0.79833698
   0.03000742  0.07446217  0.59611644
   0.90283580  0.79708621  0.20364599
   0.80371850  0.59104663  0.39903745
   0.73339324  0.46571534  0.19984513
   0.66291353  0.34132848 -0.00238853
   0.37344108  0.72400682  0.59987226
   0.13541519  0.27403636  0.39784525
   0.83593176  0.66164233  0.00368331
   0.92883141  0.87119922  0.79799909
   0.56781937  0.13396260  0.19559557
   0.40807579  0.79164013  0.19825746
   0.43930012  0.85596670  0.79414110
   0.29643332  0.60418912  0.40363222
   0.86447939  0.73677872  0.59880236
   0.46501853  0.93091502  0.40681379
   0.17087303  0.33474351  0.00070520
   0.26480358  0.53617844  0.79990822
   0.20344076  0.39412357  0.59770771
   0.06101939  0.14355182  0.20596694
   0.76844371  0.52646959  0.80083467
   0.59688659  0.20242453  0.79715978
   0.53308972  0.06729562  0.60328065
   0.33536407  0.65627457  0.00052464
   0.23012329  0.46826087  0.20005601
SQS with 1 vacancy for VFE and VRV      
           1
    -3.176074   -3.134911   -3.181376
     1.550297    1.621289   -7.969539
     8.005238   -7.975936   -1.517125
   Nb   Mo   Ta   Ti   W 
   6   6   6   6   5
Direct configuration=     6
   0.96116252  0.93422525  0.39708093
   0.63366493  0.26882749  0.40469483
   0.49923955  0.00242225 -0.00192143
  -0.00298466  0.00270654  0.00201537
   0.09777833  0.20732484  0.79830959
   0.02926668  0.07562039  0.59594926
   0.90275968  0.79720477  0.20338168
   0.80381750  0.59083278  0.39925940
   0.73312109  0.46549293  0.20028600
   0.66333236  0.34081622 -0.00252578
   0.37435497  0.72288198  0.59981439
   0.13544732  0.27392412  0.39813343
   0.83529202  0.66292515  0.00336127
   0.92891758  0.87154817  0.79822232
   0.56752781  0.13390174  0.19610983
   0.40801000  0.79212463  0.19850046
   0.43843913  0.85588153  0.79431609
   0.29677576  0.60403848  0.40372015
   0.86492843  0.73670897  0.59863963
   0.46489031  0.93049404  0.40705741
   0.17115500  0.33476657  0.00070291
   0.26399713  0.53599900  0.79981550
   0.20356169  0.39391855  0.59725252
   0.06089620  0.14426767  0.20649212
   0.76857176  0.52632240  0.80059171
   0.59719139  0.20243207  0.79683119
   0.53285114  0.06721574  0.60327830
   0.33506239  0.65713910  0.00020597
   0.23097199  0.46803663  0.20042496
SQS with 1 vacancy for VFE and VRV      
           1
    -3.178868   -3.136785   -3.182082
     1.552726    1.622135   -7.972251
     8.017733   -7.985021   -1.518652
   Nb   Mo   Ta   Ti   W 
   6   6   6   6   5
Direct configuration=     7
   0.96047558  0.93498480  0.39693104
   0.63399284  0.26939720  0.40485645
   0.49983096  0.00050706 -0.00307590
  -0.00266542  0.00253267  0.00197069
   0.09804784  0.20619278  0.79826634
   0.02809455  0.07745370  0.59568463
   0.90263913  0.79739245  0.20296351
   0.80397422  0.59049425  0.39961057
   0.73269050  0.46514076  0.20098346
   0.66399504  0.34000543 -0.00274285
   0.37580104  0.72110160  0.59972301
   0.13549827  0.27374641  0.39858935
   0.83427972  0.66495571  0.00285161
   0.92905418  0.87210051  0.79857544
   0.56706658  0.13380529  0.19692340
   0.40790613  0.79289152  0.19888484
   0.43707648  0.85574654  0.79459289
   0.29731774  0.60380006  0.40385928
   0.86563905  0.73659865  0.59838222
   0.46468736  0.92982760  0.40744285
   0.17160129  0.33480311  0.00069929
   0.26272063  0.53571485  0.79966878
   0.20375282  0.39359410  0.59653243
   0.06070169  0.14540075  0.20732289
   0.76877426  0.52608947  0.80020738
   0.59767364  0.20244410  0.79631137
   0.53247350  0.06708927  0.60327457
   0.33458502  0.65850760 -0.00029828
   0.23231535  0.46768177  0.20100874
SQS with 1 vacancy for VFE and VRV      
           1
    -3.170885   -3.127040   -3.173564
     1.549783    1.617269   -7.952034
     8.005479   -7.967281   -1.515492
   Nb   Mo   Ta   Ti   W 
   6   6   6   6   5
Direct configuration=     8
   0.95998668  0.93546397  0.39687912
   0.63419464  0.26967995  0.40514301
   0.50023315 -0.00025154 -0.00366517
  -0.00273548  0.00260192  0.00210731
   0.09841927  0.20544580  0.79831438
   0.02703956  0.07869423  0.59560995
   0.90255766  0.79763688  0.20273378
   0.80416116  0.59041689  0.39986288
   0.73248571  0.46539978  0.20130269
   0.66434357  0.33964257 -0.00286601
   0.37714206  0.71956238  0.59974903
   0.13565779  0.27364715  0.39894782
   0.83403632  0.66554184  0.00252902
   0.92847546  0.87269671  0.79849925
   0.56704119  0.13351279  0.19729834
   0.40784391  0.79345587  0.19912653
   0.43657369  0.85560772  0.79440011
   0.29761225  0.60385607  0.40368555
   0.86636304  0.73645917  0.59824637
   0.46453595  0.92922359  0.40788012
   0.17186234  0.33492901  0.00076081
   0.26168128  0.53535502  0.79953448
   0.20381618  0.39331111  0.59596827
   0.06031880  0.14633797  0.20800357
   0.76860423  0.52582791  0.79996367
   0.59800198  0.20225224  0.79589075
   0.53222373  0.06689514  0.60328456
   0.33450870  0.65916318 -0.00047482
   0.23301518  0.46763469  0.20128466
SQS with 1 vacancy for VFE and VRV      
           1
    -3.172453   -3.128954   -3.175237
     1.550361    1.618225   -7.956005
     8.007886   -7.970766   -1.516113
   Nb   Mo   Ta   Ti   W 
   6   6   6   6   5
Direct configuration=     9
   0.96008299  0.93536959  0.39688936
   0.63415485  0.26962428  0.40508661
   0.50015401 -0.00010217 -0.00354922
  -0.00272170  0.00258829  0.00208042
   0.09834611  0.20559292  0.79830490
   0.02724738  0.07844991  0.59562470
   0.90257374  0.79758873  0.20277900
   0.80412430  0.59043214  0.39981322
   0.73252600  0.46534878  0.20123988
   0.66427494  0.33971403 -0.00284179
   0.37687791  0.71986553  0.59974385
   0.13562632  0.27366672  0.39887726
   0.83408431  0.66542639  0.00259252
   0.92858946  0.87257928  0.79851427
   0.56704614  0.13357041  0.19722454
   0.40785613  0.79334474  0.19907897
   0.43667276  0.85563504  0.79443806
   0.29755426  0.60384504  0.40371973
   0.86622044  0.73648664  0.59827308
   0.46456571  0.92934257  0.40779405
   0.17181091  0.33490422  0.00074870
   0.26188604  0.53542586  0.79956093
   0.20380378  0.39336681  0.59607929
   0.06039412  0.14615342  0.20786964
   0.76863776  0.52587940  0.80001163
   0.59793737  0.20229001  0.79597352
   0.53227293  0.06693337  0.60328259
   0.33452375  0.65903406 -0.00044006
   0.23287728  0.46764399  0.20123034
SQS with 1 vacancy for VFE and VRV      
           1
    -3.171901   -3.126694   -3.175433
     1.550798    1.617491   -7.957632
     8.013653   -7.971787   -1.516682
   Nb   Mo   Ta   Ti   W 
   6   6   6   6   5
Direct configuration=    10
   0.95981767  0.93557331  0.39696202
   0.63423169  0.26971552  0.40541984
   0.50025956  0.00002359 -0.00362505
  -0.00296275  0.00282730  0.00228418
   0.09862835  0.20530484  0.79838178
   0.02643304  0.07910725  0.59568047
   0.90252736  0.79783902  0.20271766
   0.80422927  0.59057301  0.40001360
   0.73256747  0.46586277  0.20126177
   0.66435633  0.33969859 -0.00284760
   0.37799202  0.71871818  0.59980550
   0.13581485  0.27361132  0.39910389
   0.83438130  0.66504993  0.00244950
   0.92792096  0.87291812  0.79818978
   0.56723753  0.13326427  0.19725435
   0.40782964  0.79369089  0.19921175
   0.43681028  0.85547617  0.79404646
   0.29775191  0.60400144  0.40343536
   0.86685344  0.73627348  0.59823550
   0.46447756  0.92893263  0.40813914
   0.17182905  0.33502862  0.00084766
   0.26122756  0.53511546  0.79943415
   0.20366037  0.39325953  0.59577190
   0.05998057  0.14675009  0.20826808
   0.76825246  0.52561963  0.79979226
   0.59807213  0.20215112  0.79568287
   0.53211788  0.06671677  0.60323729
   0.33468374  0.65909675 -0.00039398
   0.23301875  0.46780042  0.20123988
SQS with 1 vacancy for VFE and VRV      
           1
    -3.170709   -3.121815   -3.175857
     1.551741    1.615906   -7.961144
     8.026101   -7.973990   -1.517910
   Nb   Mo   Ta   Ti   W 
   6   6   6   6   5
Direct configuration=    11
   0.95924476  0.93601310  0.39711870
   0.63439807  0.26991223  0.40613889
   0.50048734  0.00029503 -0.00378868
  -0.00348310  0.00334317  0.00272375
   0.09923804  0.20468290  0.79854779
   0.02467438  0.08052639  0.59580052
   0.90242705  0.79837932  0.20258525
   0.80445619  0.59087691  0.40044598
   0.73265693  0.46697215  0.20130894
   0.66453210  0.33966523 -0.00286010
   0.38039832  0.71624124  0.59993897
   0.13622231  0.27349154  0.39959297
   0.83502255  0.66423732  0.00214101
   0.92647681  0.87364992  0.79748939
   0.56765096  0.13260340  0.19731876
   0.40777252  0.79443797  0.19949820
   0.43710677  0.85513340  0.79320150
   0.29817833  0.60433908  0.40282176
   0.86822040  0.73581315  0.59815457
   0.46428776  0.92804768  0.40888383
   0.17186834  0.33529707  0.00106120
   0.25980547  0.53444579  0.79916048
   0.20335028  0.39302819  0.59510858
   0.05908791  0.14803791  0.20912765
   0.76742017  0.52505918  0.79931887
   0.59836279  0.20185143  0.79505575
   0.53178306  0.06624934  0.60313954
   0.33502929  0.65923197 -0.00029454
   0.23332421  0.46813800  0.20126047
SQS with 1 vacancy for VFE and VRV      
           1
    -3.171410   -3.123656   -3.177428
     1.550738    1.617643   -7.964509
     8.027372   -7.980083   -1.516789
   Nb   Mo   Ta   Ti   W 
   6   6   6   6   5
Direct configuration=    12
   0.95929342  0.93597023  0.39732466
   0.63435657  0.27000086  0.40607351
   0.50057127  0.00031045 -0.00373049
  -0.00351964  0.00338732  0.00268722
   0.09924268  0.20481548  0.79863644
   0.02458186  0.08038680  0.59588690
   0.90249456  0.79860194  0.20263239
   0.80470514  0.59110056  0.40037731
   0.73286953  0.46710240  0.20137228
   0.66428039  0.33994491 -0.00275849
   0.38120189  0.71547177  0.59992544
   0.13615629  0.27375344  0.39956356
   0.83518102  0.66438476  0.00210981
   0.92678819  0.87325967  0.79743648
   0.56773410  0.13292612  0.19740627
   0.40794071  0.79461243  0.19936825
   0.43662352  0.85491300  0.79315409
   0.29807385  0.60443600  0.40270712
   0.86882001  0.73542198  0.59812611
   0.46440837  0.92795987  0.40903283
   0.17180362  0.33528213  0.00116782
   0.25953466  0.53431390  0.79913129
   0.20291295  0.39314368  0.59512936
   0.05890493  0.14830297  0.20923416
   0.76704744  0.52480504  0.79913109
   0.59819924  0.20192172  0.79500768
   0.53141178  0.06607314  0.60310386
   0.33505937  0.65902800 -0.00040716
   0.23332227  0.46836944  0.20117021
SQS with 1 vacancy for VFE and VRV      
           1
    -3.171856   -3.124828   -3.178429
     1.550099    1.618750   -7.966652
     8.028181   -7.983963   -1.516076
   Nb   Mo   Ta   Ti   W 
   6   6   6   6   5
Direct configuration=    13
   0.95932433  0.93594299  0.39745575
   0.63433018  0.27005725  0.40603191
   0.50062467  0.00032028 -0.00369345
  -0.00354289  0.00341541  0.00266398
   0.09924559  0.20489988  0.79869287
   0.02452295  0.08029798  0.59594186
   0.90253750  0.79874365  0.20266241
   0.80486360  0.59124289  0.40033362
   0.73300481  0.46718532  0.20141259
   0.66412013  0.34012296 -0.00269377
   0.38171342  0.71498199  0.59991671
   0.13611426  0.27392013  0.39954487
   0.83528188  0.66447860  0.00208995
   0.92698643  0.87301126  0.79740274
   0.56778697  0.13313156  0.19746200
   0.40804779  0.79472343  0.19928555
   0.43631596  0.85477271  0.79312391
   0.29800738  0.60449766  0.40263417
   0.86920170  0.73517298  0.59810793
   0.46448510  0.92790402  0.40912764
   0.17176239  0.33527265  0.00123569
   0.25936230  0.53422994  0.79911271
   0.20263458  0.39321720  0.59514262
   0.05878841  0.14847171  0.20930199
   0.76681028  0.52464323  0.79901157
   0.59809516  0.20196646  0.79497710
   0.53117549  0.06596099  0.60308115
   0.33507856  0.65889814 -0.00047887
   0.23332106  0.46851673  0.20111279
SQS with 1 vacancy for VFE and VRV      
           1
    -3.170434   -3.124098   -3.177426
     1.548363    1.619050   -7.963769
     8.024111   -7.983144   -1.514102
   Nb   Mo   Ta   Ti   W 
   6   6   6   6   5
Direct configuration=    14
   0.95940393  0.93591427  0.39758355
   0.63431049  0.27011001  0.40598574
   0.50065787  0.00034212 -0.00365650
  -0.00354373  0.00342596  0.00262408
   0.09920965  0.20496373  0.79874503
   0.02448251  0.08013785  0.59601142
   0.90261475  0.79889715  0.20268964
   0.80500482  0.59139655  0.40024477
   0.73311196  0.46727670  0.20142798
   0.66395962  0.34029449 -0.00263991
   0.38218854  0.71452637  0.59990215
   0.13603182  0.27411385  0.39951919
   0.83529182  0.66459711  0.00206038
   0.92708281  0.87274764  0.79740034
   0.56779182  0.13338682  0.19751464
   0.40815290  0.79481903  0.19917894
   0.43615983  0.85461866  0.79313768
   0.29795546  0.60456345  0.40255488
   0.86954944  0.73491098  0.59810234
   0.46460585  0.92789278  0.40919415
   0.17171116  0.33526965  0.00129924
   0.25923883  0.53411968  0.79911697
   0.20231997  0.39327577  0.59518028
   0.05873875  0.14861872  0.20934295
   0.76657414  0.52450498  0.79892043
   0.59799748  0.20195251  0.79497761
   0.53096166  0.06584915  0.60309059
   0.33511882  0.65879158 -0.00055300
   0.23331703  0.46868242  0.20104442
SQS with 1 vacancy for VFE and VRV      
           1
    -3.168547   -3.123130   -3.176097
     1.546061    1.619449   -7.959945
     8.018715   -7.982057   -1.511484
   Nb   Mo   Ta   Ti   W 
   6   6   6   6   5
Direct configuration=    15
   0.95950947  0.93587623  0.39775307
   0.63428439  0.27017999  0.40592450
   0.50070190  0.00037112 -0.00360747
  -0.00354481  0.00343994  0.00257115
   0.09916194  0.20504845  0.79881424
   0.02442885  0.07992545  0.59610368
   0.90271720  0.79910080  0.20272579
   0.80519219  0.59160035  0.40012693
   0.73325410  0.46739793  0.20144839
   0.66374664  0.34052207 -0.00256842
   0.38281887  0.71392192  0.59988273
   0.13592244  0.27437084  0.39948516
   0.83530502  0.66475432  0.00202116
   0.92721069  0.87239792  0.79739710
   0.56779822  0.13372548  0.19758453
   0.40829237  0.79494581  0.19903754
   0.43595271  0.85441432  0.79315593
   0.29788660  0.60465070  0.40244971
   0.87001076  0.73456339  0.59809486
   0.46476600  0.92787790  0.40928236
   0.17164317  0.33526571  0.00138355
   0.25907503  0.53397340  0.79912261
   0.20190260  0.39335349  0.59523025
   0.05867285  0.14881377  0.20939732
   0.76626094  0.52432154  0.79879953
   0.59786791  0.20193401  0.79497830
   0.53067800  0.06570078  0.60310310
   0.33517227  0.65865017 -0.00065135
   0.23331170  0.46890221  0.20095376
SQS with 1 vacancy for VFE and VRV      
           1
    -3.168700   -3.123145   -3.175980
     1.545800    1.620136   -7.959984
     8.018570   -7.982366   -1.510631
   Nb   Mo   Ta   Ti   W 
   6   6   6   6   5
Direct configuration=    16
   0.95963519  0.93590184  0.39781927
   0.63428121  0.27022134  0.40594981
   0.50065936  0.00043015 -0.00357918
  -0.00351370  0.00345295  0.00253585
   0.09907963  0.20499184  0.79882292
   0.02435433  0.07977638  0.59618315
   0.90279742  0.79925180  0.20271703
   0.80519837  0.59172640  0.40004443
   0.73326767  0.46750904  0.20140033
   0.66370274  0.34055138 -0.00255735
   0.38312998  0.71361804  0.59986502
   0.13582668  0.27447179  0.39950918
   0.83518737  0.66481995  0.00200036
   0.92708951  0.87224640  0.79740574
   0.56774106  0.13389956  0.19764078
   0.40834365  0.79504218  0.19899194
   0.43612026  0.85431816  0.79318456
   0.29793448  0.60470213  0.40239772
   0.87017235  0.73439050  0.59809774
   0.46489417  0.92792504  0.40927348
   0.17159694  0.33528679  0.00141301
   0.25904218  0.53382970  0.79912620
   0.20161739  0.39334925  0.59525923
   0.05874270  0.14885284  0.20940059
   0.76611198  0.52426827  0.79874533
   0.59784066  0.20182732  0.79499588
   0.53060385  0.06562579  0.60313682
   0.33522099  0.65868441 -0.00069060
   0.23332158  0.46902872  0.20091077
SQS with 1 vacancy for VFE and VRV      
           1
    -3.169160   -3.123191   -3.175629
     1.545017    1.622198   -7.960103
     8.018134   -7.983296   -1.508070
   Nb   Mo   Ta   Ti   W 
   6   6   6   6   5
Direct configuration=    17
   0.96001235  0.93597871  0.39801788
   0.63427167  0.27034542  0.40602574
   0.50053176  0.00060726 -0.00349430
  -0.00342035  0.00349195  0.00242997
   0.09883269  0.20482204  0.79884896
   0.02413077  0.07932919  0.59642151
   0.90303809  0.79970479  0.20269077
   0.80521695  0.59210449  0.39979696
   0.73330840  0.46784234  0.20125616
   0.66357107  0.34063931 -0.00252414
   0.38406323  0.71270647  0.59981184
   0.13553942  0.27477463  0.39958123
   0.83483444  0.66501683  0.00193795
   0.92672594  0.87179184  0.79743166
   0.56756961  0.13442181  0.19780956
   0.40849750  0.79533127  0.19885517
   0.43662289  0.85402973  0.79327045
   0.29807812  0.60485641  0.40224176
   0.87065709  0.73387186  0.59810635
   0.46527869  0.92806646  0.40924683
   0.17145824  0.33535005  0.00150139
   0.25894360  0.53339861  0.79913694
   0.20076178  0.39333654  0.59534615
   0.05895227  0.14897007  0.20941042
   0.76566512  0.52410846  0.79858271
   0.59775888  0.20150728  0.79504862
   0.53038139  0.06540085  0.60323797
   0.33536714  0.65878709 -0.00080833
   0.23335124  0.46940824  0.20078180
SQS with 1 vacancy for VFE and VRV      
           1
    -3.170601   -3.123512   -3.176244
     1.545205    1.622655   -7.961418
     8.019872   -7.982919   -1.507637
   Nb   Mo   Ta   Ti   W 
   6   6   6   6   5
Direct configuration=    18
   0.96013820  0.93606918  0.39798587
   0.63427705  0.27039666  0.40615720
   0.50047243  0.00069065 -0.00347338
  -0.00343553  0.00352376  0.00244839
   0.09876428  0.20462354  0.79881545
   0.02410339  0.07923642  0.59645263
   0.90306170  0.79979396  0.20264194
   0.80512946  0.59213537  0.39974949
   0.73327287  0.46790761  0.20120596
   0.66364560  0.34053361 -0.00255845
   0.38411199  0.71264798  0.59979758
   0.13552018  0.27475431  0.39966632
   0.83488987  0.66500908  0.00194053
   0.92678850  0.87177876  0.79745937
   0.56756478  0.13447079  0.19780589
   0.40850426  0.79539955  0.19888496
   0.43652064  0.85406987  0.79325021
   0.29823230  0.60484113  0.40225038
   0.87057882  0.73386866  0.59809247
   0.46534263  0.92815036  0.40918857
   0.17139834  0.33539637  0.00149862
   0.25894956  0.53328336  0.79913152
   0.20057248  0.39322003  0.59530288
   0.05903691  0.14898226  0.20939915
   0.76573267  0.52412463  0.79858354
   0.59774621  0.20133074  0.79505912
   0.53045503  0.06537719  0.60327094
   0.33526950  0.65891624 -0.00078899
   0.23335586  0.46946793  0.20078183
SQS with 1 vacancy for VFE and VRV      
           1
    -3.172948   -3.124035   -3.177247
     1.545512    1.623400   -7.963561
     8.022701   -7.982305   -1.506931
   Nb   Mo   Ta   Ti   W 
   6   6   6   6   5
Direct configuration=    19
   0.96034316  0.93621654  0.39793374
   0.63428587  0.27048010  0.40637135
   0.50037583  0.00082648 -0.00343932
  -0.00346025  0.00357556  0.00247840
   0.09865285  0.20430023  0.79876086
   0.02405881  0.07908531  0.59650332
   0.90310013  0.79993919  0.20256241
   0.80498696  0.59218567  0.39967216
   0.73321499  0.46801392  0.20112419
   0.66376697  0.34036146 -0.00261433
   0.38419139  0.71255272  0.59977434
   0.13548887  0.27472121  0.39980491
   0.83498015  0.66499644  0.00194475
   0.92689040  0.87175746  0.79750452
   0.56755691  0.13455058  0.19779990
   0.40851530  0.79551077  0.19893347
   0.43635410  0.85413525  0.79321721
   0.29848341  0.60481623  0.40226444
   0.87045135  0.73386345  0.59806986
   0.46544674  0.92828701  0.40909369
   0.17130079  0.33547181  0.00149409
   0.25895926  0.53309563  0.79912269
   0.20026415  0.39303026  0.59523236
   0.05917476  0.14900213  0.20938080
   0.76584269  0.52415099  0.79858491
   0.59772557  0.20104320  0.79507623
   0.53057498  0.06533865  0.60332466
   0.33511048  0.65912659 -0.00075749
   0.23336337  0.46956516  0.20078187
