       N       E                     dE             d eps       ncg     rms          rms(c)
DAV:   1     0.215139625435E+04    0.21514E+04   -0.91343E+04 15120   0.175E+03
DAV:   2     0.727964779023E+02   -0.20786E+04   -0.20160E+04 15168   0.518E+02
DAV:   3    -0.300353434736E+03   -0.37315E+03   -0.35444E+03 26288   0.183E+02
DAV:   4    -0.346831307310E+03   -0.46478E+02   -0.42971E+02 23464   0.602E+01
DAV:   5    -0.351946857015E+03   -0.51155E+01   -0.49851E+01 28856   0.215E+01    0.747E+01
DAV:   6    -0.342492577095E+03    0.94543E+01   -0.12600E+02 20912   0.321E+01    0.380E+01
DAV:   7    -0.356257439549E+03   -0.13765E+02   -0.44766E+02 21840   0.855E+01    0.279E+01
DAV:   8    -0.345321917425E+03    0.10936E+02   -0.96205E+01 22504   0.315E+01    0.202E+01
DAV:   9    -0.334253381176E+03    0.11069E+02   -0.20967E+01 21528   0.147E+01    0.133E+01
DAV:  10    -0.331021613943E+03    0.32318E+01   -0.10907E+01 22096   0.934E+00    0.911E+00
DAV:  11    -0.329741063080E+03    0.12806E+01   -0.41278E+00 22624   0.548E+00    0.514E+00
DAV:  12    -0.329456967917E+03    0.28410E+00   -0.16872E+00 22264   0.405E+00    0.279E+00
DAV:  13    -0.329423229127E+03    0.33739E-01   -0.10897E+00 22160   0.335E+00    0.195E+00
DAV:  14    -0.329385329883E+03    0.37899E-01   -0.64022E-01 22696   0.236E+00    0.126E+00
DAV:  15    -0.329382305114E+03    0.30248E-02   -0.37983E-01 22488   0.190E+00    0.121E+00
DAV:  16    -0.329368744425E+03    0.13561E-01   -0.88127E-02 22776   0.882E-01    0.670E-01
DAV:  17    -0.329365194583E+03    0.35498E-02   -0.19418E-02 21896   0.457E-01    0.421E-01
DAV:  18    -0.329363376110E+03    0.18185E-02   -0.18347E-02 21440   0.409E-01    0.184E-01
DAV:  19    -0.329363160958E+03    0.21515E-03   -0.59846E-03 20720   0.234E-01    0.115E-01
DAV:  20    -0.329363080948E+03    0.80010E-04   -0.21145E-03 19536   0.133E-01    0.803E-02
DAV:  21    -0.329363011336E+03    0.69611E-04   -0.53624E-04 15456   0.832E-02
   1 F= -.32936301E+03 E0= -.32935945E+03  d E =-.329363E+03
       N       E                     dE             d eps       ncg     rms          rms(c)
DAV:   1    -0.330350520388E+03   -0.98744E+00   -0.10426E+02 15752   0.408E+01    0.104E+01
DAV:   2    -0.330494665134E+03   -0.14414E+00   -0.14128E+01 23256   0.160E+01    0.672E+00
DAV:   3    -0.330176736905E+03    0.31793E+00   -0.92861E+00 22632   0.917E+00    0.563E+00
DAV:   4    -0.329890353888E+03    0.28638E+00   -0.52462E+00 23328   0.762E+00    0.354E+00
DAV:   5    -0.329727930824E+03    0.16242E+00   -0.21337E+00 22384   0.486E+00    0.209E+00
DAV:   6    -0.329648429948E+03    0.79501E-01   -0.53822E-01 24184   0.223E+00    0.110E+00
DAV:   7    -0.329656530943E+03   -0.81010E-02   -0.13804E-01 25176   0.109E+00    0.871E-01
DAV:   8    -0.329656070639E+03    0.46030E-03   -0.69430E-02 22760   0.780E-01    0.710E-01
DAV:   9    -0.329657619395E+03   -0.15488E-02   -0.29366E-02 22304   0.542E-01    0.462E-01
DAV:  10    -0.329660168259E+03   -0.25489E-02   -0.20984E-02 22928   0.453E-01    0.332E-01
DAV:  11    -0.329660575435E+03   -0.40718E-03   -0.14925E-02 23352   0.358E-01    0.209E-01
DAV:  12    -0.329660564148E+03    0.11287E-04   -0.54771E-03 21264   0.208E-01    0.109E-01
DAV:  13    -0.329660640650E+03   -0.76502E-04   -0.15672E-03 22256   0.116E-01    0.595E-02
DAV:  14    -0.329660671262E+03   -0.30612E-04   -0.63394E-04 16672   0.820E-02
   2 F= -.32966067E+03 E0= -.32965845E+03  d E =-.297660E+00
       N       E                     dE             d eps       ncg     rms          rms(c)
DAV:   1    -0.329730988513E+03   -0.70348E-01   -0.59095E+00 15792   0.973E+00    0.253E+00
DAV:   2    -0.329737095519E+03   -0.61070E-02   -0.73641E-01 24032   0.363E+00    0.169E+00
DAV:   3    -0.329733664840E+03    0.34307E-02   -0.63628E-01 22864   0.254E+00    0.143E+00
DAV:   4    -0.329707220213E+03    0.26445E-01   -0.26222E-01 23800   0.169E+00    0.791E-01
DAV:   5    -0.329697348406E+03    0.98718E-02   -0.11189E-01 22424   0.110E+00    0.478E-01
DAV:   6    -0.329693759767E+03    0.35886E-02   -0.34045E-02 23320   0.563E-01    0.255E-01
DAV:   7    -0.329694070106E+03   -0.31034E-03   -0.84707E-03 23352   0.270E-01    0.202E-01
DAV:   8    -0.329693991691E+03    0.78415E-04   -0.37583E-03 20176   0.180E-01    0.159E-01
DAV:   9    -0.329694078841E+03   -0.87150E-04   -0.17442E-03 19672   0.130E-01    0.115E-01
DAV:  10    -0.329694214280E+03   -0.13544E-03   -0.15820E-03 19328   0.124E-01    0.905E-02
DAV:  11    -0.329694188426E+03    0.25853E-04   -0.92672E-04 18096   0.102E-01
   3 F= -.32969419E+03 E0= -.32969169E+03  d E =-.331177E+00
       N       E                     dE             d eps       ncg     rms          rms(c)
DAV:   1    -0.329884152543E+03   -0.18994E+00   -0.51013E+01 15120   0.241E+01    0.374E+00
DAV:   2    -0.330045695898E+03   -0.16154E+00   -0.37959E+00 21384   0.742E+00    0.255E+00
DAV:   3    -0.330048099068E+03   -0.24032E-02   -0.16490E+00 22872   0.427E+00    0.217E+00
DAV:   4    -0.329979480312E+03    0.68619E-01   -0.48947E-01 22208   0.231E+00    0.121E+00
DAV:   5    -0.329965155389E+03    0.14325E-01   -0.21714E-01 22664   0.155E+00    0.839E-01
DAV:   6    -0.329958195412E+03    0.69600E-02   -0.11545E-01 22952   0.108E+00    0.485E-01
DAV:   7    -0.329956087673E+03    0.21077E-02   -0.32172E-02 25432   0.644E-01    0.368E-01
DAV:   8    -0.329955553620E+03    0.53405E-03   -0.17743E-02 23136   0.378E-01    0.295E-01
DAV:   9    -0.329955326956E+03    0.22666E-03   -0.59788E-03 20784   0.211E-01    0.213E-01
DAV:  10    -0.329955532297E+03   -0.20534E-03   -0.23717E-03 19608   0.153E-01    0.149E-01
DAV:  11    -0.329955725593E+03   -0.19330E-03   -0.31492E-03 20336   0.181E-01    0.113E-01
DAV:  12    -0.329955574372E+03    0.15122E-03   -0.16394E-03 20496   0.133E-01    0.408E-02
DAV:  13    -0.329955547066E+03    0.27305E-04   -0.19850E-04 10224   0.638E-02
   4 F= -.32995555E+03 E0= -.32995328E+03  d E =-.261359E+00
       N       E                     dE             d eps       ncg     rms          rms(c)
DAV:   1    -0.329963804417E+03   -0.82300E-02   -0.44398E+00 15120   0.707E+00    0.107E+00
DAV:   2    -0.329977562605E+03   -0.13758E-01   -0.33087E-01 21624   0.219E+00    0.741E-01
DAV:   3    -0.329976599617E+03    0.96299E-03   -0.13295E-01 21928   0.119E+00    0.613E-01
DAV:   4    -0.329971556656E+03    0.50430E-02   -0.44234E-02 21728   0.691E-01    0.357E-01
DAV:   5    -0.329970350650E+03    0.12060E-02   -0.19704E-02 22688   0.458E-01    0.246E-01
DAV:   6    -0.329969645640E+03    0.70501E-03   -0.89668E-03 23248   0.302E-01    0.135E-01
DAV:   7    -0.329969499844E+03    0.14580E-03   -0.24171E-03 22192   0.181E-01    0.107E-01
DAV:   8    -0.329969457909E+03    0.41935E-04   -0.13929E-03 19456   0.107E-01    0.839E-02
DAV:   9    -0.329969435188E+03    0.22721E-04   -0.41330E-04 13448   0.684E-02
   5 F= -.32996944E+03 E0= -.32996715E+03  d E =-.275247E+00
       N       E                     dE             d eps       ncg     rms          rms(c)
DAV:   1    -0.329998151246E+03   -0.28693E-01   -0.33070E+00 15120   0.601E+00    0.860E-01
DAV:   2    -0.330014498599E+03   -0.16347E-01   -0.24494E-01 22232   0.194E+00    0.748E-01
DAV:   3    -0.330010465417E+03    0.40332E-02   -0.10492E-01 22216   0.105E+00    0.554E-01
DAV:   4    -0.330008065943E+03    0.23995E-02   -0.38379E-02 22584   0.617E-01    0.377E-01
DAV:   5    -0.330006362572E+03    0.17034E-02   -0.19291E-02 22520   0.429E-01    0.200E-01
DAV:   6    -0.330005980201E+03    0.38237E-03   -0.63983E-03 23256   0.266E-01    0.129E-01
DAV:   7    -0.330005828228E+03    0.15197E-03   -0.30064E-03 21200   0.178E-01    0.897E-02
DAV:   8    -0.330005722766E+03    0.10546E-03   -0.86425E-04 17696   0.962E-02    0.558E-02
DAV:   9    -0.330005714070E+03    0.86961E-05   -0.16565E-04 10336   0.564E-02
   6 F= -.33000571E+03 E0= -.33000344E+03  d E =-.362789E-01
       N       E                     dE             d eps       ncg     rms          rms(c)
DAV:   1    -0.330010661410E+03   -0.49386E-02   -0.55068E+00 15120   0.776E+00    0.111E+00
DAV:   2    -0.330038747437E+03   -0.28086E-01   -0.41168E-01 22240   0.252E+00    0.991E-01
DAV:   3    -0.330031499388E+03    0.72480E-02   -0.18157E-01 22256   0.138E+00    0.728E-01
DAV:   4    -0.330027215835E+03    0.42836E-02   -0.64267E-02 22800   0.800E-01    0.487E-01
DAV:   5    -0.330024424169E+03    0.27917E-02   -0.32087E-02 22520   0.552E-01    0.262E-01
DAV:   6    -0.330023814436E+03    0.60973E-03   -0.11259E-02 23544   0.353E-01    0.174E-01
DAV:   7    -0.330023508852E+03    0.30558E-03   -0.54612E-03 22664   0.239E-01    0.117E-01
DAV:   8    -0.330023321112E+03    0.18774E-03   -0.15575E-03 19768   0.124E-01    0.714E-02
DAV:   9    -0.330023309001E+03    0.12111E-04   -0.33197E-04 12512   0.637E-02
   7 F= -.33002331E+03 E0= -.33002113E+03  d E =-.538738E-01
       N       E                     dE             d eps       ncg     rms          rms(c)
DAV:   1    -0.330055774068E+03   -0.32453E-01   -0.21874E+00 15168   0.589E+00    0.144E+00
DAV:   2    -0.330056114385E+03   -0.34032E-03   -0.25421E-01 23456   0.208E+00    0.875E-01
DAV:   3    -0.330057481851E+03   -0.13675E-02   -0.18301E-01 22664   0.139E+00    0.856E-01
DAV:   4    -0.330047720403E+03    0.97614E-02   -0.94977E-02 23312   0.101E+00    0.491E-01
DAV:   5    -0.330043939399E+03    0.37810E-02   -0.45326E-02 22592   0.639E-01    0.272E-01
DAV:   6    -0.330042779207E+03    0.11602E-02   -0.11206E-02 23200   0.306E-01    0.124E-01
DAV:   7    -0.330042919078E+03   -0.13987E-03   -0.25681E-03 21584   0.157E-01    0.105E-01
DAV:   8    -0.330042895194E+03    0.23884E-04   -0.11803E-03 18720   0.103E-01    0.758E-02
DAV:   9    -0.330042915529E+03   -0.20335E-04   -0.24142E-04 11088   0.680E-02
   8 F= -.33004292E+03 E0= -.33004084E+03  d E =-.196065E-01
       N       E                     dE             d eps       ncg     rms          rms(c)
DAV:   1    -0.330049617485E+03   -0.67223E-02   -0.74634E-01 15184   0.344E+00    0.835E-01
DAV:   2    -0.330049426869E+03    0.19062E-03   -0.83724E-02 23056   0.122E+00    0.499E-01
DAV:   3    -0.330049981982E+03   -0.55511E-03   -0.62545E-02 22456   0.819E-01    0.483E-01
DAV:   4    -0.330046726458E+03    0.32555E-02   -0.31446E-02 23224   0.584E-01    0.277E-01
DAV:   5    -0.330045517045E+03    0.12094E-02   -0.14449E-02 22224   0.363E-01    0.157E-01
DAV:   6    -0.330045192109E+03    0.32494E-03   -0.34312E-03 21328   0.168E-01    0.802E-02
DAV:   7    -0.330045254036E+03   -0.61927E-04   -0.75079E-04 17712   0.869E-02
   9 F= -.33004525E+03 E0= -.33004326E+03  d E =-.219450E-01
       N       E                     dE             d eps       ncg     rms          rms(c)
DAV:   1    -0.330052543931E+03   -0.73518E-02   -0.48512E-01 15928   0.211E+00    0.198E-01
DAV:   2    -0.330054545395E+03   -0.20015E-02   -0.24721E-02 24640   0.704E-01    0.259E-01
DAV:   3    -0.330053603720E+03    0.94167E-03   -0.10473E-02 21840   0.341E-01    0.150E-01
DAV:   4    -0.330053405637E+03    0.19808E-03   -0.28809E-03 20520   0.161E-01    0.102E-01
DAV:   5    -0.330053309528E+03    0.96109E-04   -0.10717E-03 18072   0.102E-01    0.677E-02
DAV:   6    -0.330053289329E+03    0.20199E-04   -0.57144E-04 15152   0.924E-02
  10 F= -.33005329E+03 E0= -.33005137E+03  d E =-.803529E-02
       N       E                     dE             d eps       ncg     rms          rms(c)
DAV:   1    -0.330061007023E+03   -0.76975E-02   -0.43560E+00 16112   0.634E+00    0.570E-01
DAV:   2    -0.330077857033E+03   -0.16850E-01   -0.20908E-01 24480   0.206E+00    0.722E-01
DAV:   3    -0.330071098446E+03    0.67586E-02   -0.86655E-02 23664   0.973E-01    0.430E-01
DAV:   4    -0.330069146937E+03    0.19515E-02   -0.23425E-02 22968   0.460E-01    0.270E-01
DAV:   5    -0.330068315773E+03    0.83116E-03   -0.84047E-03 21664   0.277E-01    0.181E-01
DAV:   6    -0.330068084976E+03    0.23080E-03   -0.49662E-03 21224   0.229E-01    0.130E-01
DAV:   7    -0.330067873434E+03    0.21154E-03   -0.26505E-03 20288   0.164E-01    0.732E-02
DAV:   8    -0.330067789936E+03    0.83498E-04   -0.85521E-04 16928   0.101E-01
  11 F= -.33006779E+03 E0= -.33006624E+03  d E =-.225359E-01
       N       E                     dE             d eps       ncg     rms          rms(c)
DAV:   1    -0.330068059314E+03   -0.18588E-03   -0.10132E+00 16072   0.306E+00    0.271E-01
DAV:   2    -0.330071802697E+03   -0.37434E-02   -0.47079E-02 24488   0.993E-01    0.333E-01
DAV:   3    -0.330070428065E+03    0.13746E-02   -0.18962E-02 23464   0.458E-01    0.206E-01
DAV:   4    -0.330069952483E+03    0.47558E-03   -0.53402E-03 21280   0.219E-01    0.126E-01
DAV:   5    -0.330069779345E+03    0.17314E-03   -0.19215E-03 19544   0.134E-01    0.893E-02
DAV:   6    -0.330069728048E+03    0.51297E-04   -0.12806E-03 18688   0.115E-01    0.652E-02
DAV:   7    -0.330069668647E+03    0.59400E-04   -0.59011E-04 15600   0.836E-02
  12 F= -.33006967E+03 E0= -.33006833E+03  d E =-.244146E-01
       N       E                     dE             d eps       ncg     rms          rms(c)
DAV:   1    -0.330077804713E+03   -0.80767E-02   -0.83121E-01 17720   0.382E+00    0.935E-01
DAV:   2    -0.330079105740E+03   -0.13010E-02   -0.12577E-01 24208   0.149E+00    0.595E-01
DAV:   3    -0.330077700997E+03    0.14047E-02   -0.90053E-02 22560   0.952E-01    0.482E-01
DAV:   4    -0.330073977233E+03    0.37238E-02   -0.29173E-02 22720   0.568E-01    0.227E-01
DAV:   5    -0.330073524402E+03    0.45283E-03   -0.10829E-02 22648   0.342E-01    0.195E-01
DAV:   6    -0.330072953562E+03    0.57084E-03   -0.53549E-03 20648   0.215E-01    0.975E-02
DAV:   7    -0.330072970931E+03   -0.17369E-04   -0.12888E-03 20224   0.105E-01    0.680E-02
DAV:   8    -0.330072962828E+03    0.81027E-05   -0.37817E-04 13184   0.673E-02
  13 F= -.33007296E+03 E0= -.33007161E+03  d E =-.329418E-02
       N       E                     dE             d eps       ncg     rms          rms(c)
DAV:   1    -0.330072993153E+03   -0.22223E-04   -0.63575E-04 15752   0.105E-01    0.488E-02
DAV:   2    -0.330073082377E+03   -0.89224E-04   -0.75252E-04 16168   0.105E-01
  14 F= -.33007308E+03 E0= -.33007173E+03  d E =-.341373E-02
       N       E                     dE             d eps       ncg     rms          rms(c)
DAV:   1    -0.330074011561E+03   -0.10184E-02   -0.48722E-01 15784   0.247E+00    0.229E-01
DAV:   2    -0.330076716460E+03   -0.27049E-02   -0.33760E-02 23192   0.754E-01    0.211E-01
DAV:   3    -0.330076577518E+03    0.13894E-03   -0.75420E-03 23056   0.275E-01    0.168E-01
DAV:   4    -0.330076290708E+03    0.28681E-03   -0.18974E-03 20160   0.145E-01    0.103E-01
DAV:   5    -0.330076294673E+03   -0.39649E-05   -0.11518E-03 18184   0.109E-01    0.843E-02
DAV:   6    -0.330076216032E+03    0.78642E-04   -0.76289E-04 16104   0.101E-01
  15 F= -.33007622E+03 E0= -.33007483E+03  d E =-.313365E-02
       N       E                     dE             d eps       ncg     rms          rms(c)
DAV:   1    -0.330070948167E+03    0.53465E-02   -0.19296E+00 16352   0.489E+00    0.441E-01
DAV:   2    -0.330080678599E+03   -0.97304E-02   -0.11973E-01 23136   0.141E+00    0.406E-01
DAV:   3    -0.330080041817E+03    0.63678E-03   -0.30441E-02 23968   0.541E-01    0.313E-01
DAV:   4    -0.330079090934E+03    0.95088E-03   -0.77654E-03 22168   0.286E-01    0.192E-01
DAV:   5    -0.330078964595E+03    0.12634E-03   -0.42683E-03 21424   0.203E-01    0.142E-01
DAV:   6    -0.330078723675E+03    0.24092E-03   -0.19910E-03 21872   0.152E-01    0.634E-02
DAV:   7    -0.330078687174E+03    0.36501E-04   -0.81983E-04 18424   0.962E-02
  16 F= -.33007869E+03 E0= -.33007719E+03  d E =-.560480E-02
       N       E                     dE             d eps       ncg     rms          rms(c)
DAV:   1    -0.330079412405E+03   -0.68873E-03   -0.27079E-01 16512   0.174E+00    0.140E-01
DAV:   2    -0.330080578282E+03   -0.11659E-02   -0.13659E-02 23744   0.481E-01    0.105E-01
DAV:   3    -0.330080597848E+03   -0.19566E-04   -0.14004E-03 20752   0.124E-01    0.874E-02
DAV:   4    -0.330080533208E+03    0.64640E-04   -0.50764E-04 14272   0.806E-02
  17 F= -.33008053E+03 E0= -.33007903E+03  d E =-.184603E-02
       N       E                     dE             d eps       ncg     rms          rms(c)
DAV:   1    -0.330073518864E+03    0.70790E-02   -0.24276E+00 16504   0.519E+00    0.410E-01
DAV:   2    -0.330083601358E+03   -0.10082E-01   -0.12053E-01 23744   0.143E+00    0.307E-01
DAV:   3    -0.330083683957E+03   -0.82599E-04   -0.96843E-03 24280   0.322E-01    0.244E-01
DAV:   4    -0.330083352824E+03    0.33113E-03   -0.47132E-03 21352   0.216E-01    0.193E-01
DAV:   5    -0.330083268756E+03    0.84067E-04   -0.35755E-03 21976   0.185E-01    0.144E-01
DAV:   6    -0.330082959221E+03    0.30954E-03   -0.25513E-03 21488   0.155E-01    0.548E-02
DAV:   7    -0.330082926046E+03    0.33175E-04   -0.52428E-04 15072   0.802E-02
  18 F= -.33008293E+03 E0= -.33008138E+03  d E =-.423887E-02
       N       E                     dE             d eps       ncg     rms          rms(c)
DAV:   1    -0.330085445861E+03   -0.24866E-02   -0.58139E-01 15152   0.300E+00    0.678E-01
DAV:   2    -0.330087144273E+03   -0.16984E-02   -0.73513E-02 22384   0.108E+00    0.428E-01
DAV:   3    -0.330086563901E+03    0.58037E-03   -0.46698E-02 21624   0.701E-01    0.365E-01
DAV:   4    -0.330084405246E+03    0.21587E-02   -0.15377E-02 21736   0.417E-01    0.165E-01
DAV:   5    -0.330084192065E+03    0.21318E-03   -0.64598E-03 22584   0.265E-01    0.140E-01
DAV:   6    -0.330083871175E+03    0.32089E-03   -0.27392E-03 20192   0.160E-01    0.629E-02
DAV:   7    -0.330083860113E+03    0.11062E-04   -0.50896E-04 15472   0.765E-02
  19 F= -.33008386E+03 E0= -.33008236E+03  d E =-.934068E-03
       N       E                     dE             d eps       ncg     rms          rms(c)
DAV:   1    -0.330084088272E+03   -0.21710E-03   -0.36301E-02 15152   0.747E-01    0.178E-01
DAV:   2    -0.330084275815E+03   -0.18754E-03   -0.56779E-03 22736   0.295E-01    0.128E-01
DAV:   3    -0.330084172609E+03    0.10321E-03   -0.35119E-03 20200   0.190E-01    0.101E-01
DAV:   4    -0.330084065651E+03    0.10696E-03   -0.10099E-03 16704   0.110E-01    0.636E-02
DAV:   5    -0.330084011370E+03    0.54281E-04   -0.61935E-04 15088   0.891E-02
  20 F= -.33008401E+03 E0= -.33008251E+03  d E =-.108532E-02
       N       E                     dE             d eps       ncg     rms          rms(c)
DAV:   1    -0.330084031196E+03    0.34455E-04   -0.35088E-01 16232   0.193E+00    0.124E-01
DAV:   2    -0.330085446305E+03   -0.14151E-02   -0.16424E-02 24568   0.559E-01    0.145E-01
DAV:   3    -0.330085248966E+03    0.19734E-03   -0.35484E-03 22392   0.185E-01    0.867E-02
DAV:   4    -0.330085155050E+03    0.93915E-04   -0.49183E-04 14432   0.820E-02
  21 F= -.33008516E+03 E0= -.33008368E+03  d E =-.114368E-02
       N       E                     dE             d eps       ncg     rms          rms(c)
DAV:   1    -0.330077080530E+03    0.81684E-02   -0.25712E+00 16256   0.522E+00    0.345E-01
DAV:   2    -0.330087151378E+03   -0.10071E-01   -0.11907E-01 24664   0.150E+00    0.399E-01
DAV:   3    -0.330085787931E+03    0.13634E-02   -0.24538E-02 24144   0.491E-01    0.250E-01
DAV:   4    -0.330085051812E+03    0.73612E-03   -0.38318E-03 23376   0.211E-01    0.152E-01
DAV:   5    -0.330084927991E+03    0.12382E-03   -0.20209E-03 21424   0.160E-01    0.118E-01
DAV:   6    -0.330084808103E+03    0.11989E-03   -0.26977E-03 20144   0.160E-01    0.860E-02
DAV:   7    -0.330084665938E+03    0.14216E-03   -0.92920E-04 17312   0.966E-02    0.268E-02
DAV:   8    -0.330084662028E+03    0.39103E-05   -0.13835E-04  9944   0.524E-02
  22 F= -.33008466E+03 E0= -.33008328E+03  d E =-.650658E-03
       N       E                     dE             d eps       ncg     rms          rms(c)
DAV:   1    -0.330083253762E+03    0.14122E-02   -0.73057E-01 16192   0.278E+00    0.190E-01
DAV:   2    -0.330086193127E+03   -0.29394E-02   -0.34069E-02 24584   0.806E-01    0.207E-01
DAV:   3    -0.330085858717E+03    0.33441E-03   -0.71338E-03 23904   0.262E-01    0.135E-01
DAV:   4    -0.330085638799E+03    0.21992E-03   -0.11077E-03 18296   0.116E-01    0.829E-02
DAV:   5    -0.330085614447E+03    0.24353E-04   -0.48827E-04 14320   0.843E-02
  23 F= -.33008561E+03 E0= -.33008418E+03  d E =-.160308E-02
       N       E                     dE             d eps       ncg     rms          rms(c)
DAV:   1    -0.330086506580E+03   -0.86778E-03   -0.14255E-01 15120   0.148E+00    0.342E-01
DAV:   2    -0.330086698044E+03   -0.19146E-03   -0.15775E-02 22504   0.520E-01    0.211E-01
DAV:   3    -0.330086819606E+03   -0.12156E-03   -0.10518E-02 22184   0.336E-01    0.200E-01
DAV:   4    -0.330086222640E+03    0.59697E-03   -0.50330E-03 20560   0.238E-01    0.102E-01
DAV:   5    -0.330086080289E+03    0.14235E-03   -0.18818E-03 19400   0.146E-01    0.631E-02
DAV:   6    -0.330086016120E+03    0.64169E-04   -0.65068E-04 15232   0.867E-02
  24 F= -.33008602E+03 E0= -.33008459E+03  d E =-.401673E-03
       N       E                     dE             d eps       ncg     rms          rms(c)
DAV:   1    -0.330086054003E+03    0.26285E-04   -0.17456E-03 16096   0.160E-01    0.496E-02
DAV:   2    -0.330086109782E+03   -0.55779E-04   -0.61691E-04 15216   0.102E-01
  25 F= -.33008611E+03 E0= -.33008469E+03  d E =-.495335E-03
