SQS with 1 vacancy for VFE and VRV      
           1
    -3.190000   -3.190000   -3.190000
     1.595000    1.595000   -7.975000
     7.975000   -7.975000   -1.595000
   Nb   Mo   Ta   Ti   W 
   6   6   6   6   5
Direct configuration=     1
   0.96666667  0.93333333  0.40000000
   0.63333333  0.26666667  0.40000000
   0.50000000  0.00000000  0.00000000
   0.00000000  0.00000000  0.00000000
   0.10000000  0.20000000  0.80000000
   0.03333333  0.06666667  0.60000000
   0.90000000  0.80000000  0.20000000
   0.80000000  0.60000000  0.40000000
   0.73333333  0.46666667  0.20000000
   0.66666667  0.33333333  0.00000000
   0.36666667  0.73333333  0.60000000
   0.13333333  0.26666667  0.40000000
   0.83333333  0.66666667  0.00000000
   0.93333333  0.86666667  0.80000000
   0.56666667  0.13333333  0.20000000
   0.40000000  0.80000000  0.20000000
   0.43333333  0.86666667  0.80000000
   0.30000000  0.60000000  0.40000000
   0.86666667  0.73333333  0.60000000
   0.46666667  0.93333333  0.40000000
   0.16666667  0.33333333  0.00000000
   0.26666667  0.53333333  0.80000000
   0.20000000  0.40000000  0.60000000
   0.06666667  0.13333333  0.20000000
   0.76666667  0.53333333  0.80000000
   0.70000000  0.40000000  0.60000000
   0.53333333  0.06666667  0.60000000
   0.33333333  0.66666667  0.00000000
   0.23333333  0.46666667  0.20000000
SQS with 1 vacancy for VFE and VRV      
           1
    -3.139831   -3.132559   -3.155258
     1.568691    1.568556   -7.889196
     7.919584   -7.904145   -1.574886
   Nb   Mo   Ta   Ti   W 
   6   6   6   6   5
Direct configuration=     2
   0.96298705  0.93411482  0.39841964
   0.63274501  0.26573517  0.40116421
   0.49987955  0.00406225 -0.00252229
  -0.00012489  0.00123419  0.00129099
   0.09672414  0.20350089  0.79885855
   0.03621897  0.06795766  0.59812949
   0.90017112  0.79908440  0.20187125
   0.80342587  0.59562392  0.39921330
   0.73348627  0.46648369  0.19932713
   0.66650339  0.33713468 -0.00076882
   0.36850551  0.73003481  0.60099503
   0.13282484  0.26984414  0.39979530
   0.83443920  0.66446695  0.00133384
   0.92879679  0.87209154  0.79955575
   0.56681104  0.13387701  0.19746139
   0.40353327  0.79512497  0.19965265
   0.43431262  0.86090830  0.79723810
   0.30051474  0.60112193  0.40160546
   0.86286894  0.73315259  0.59956165
   0.46633292  0.93175002  0.40251376
   0.16573913  0.33494988  0.00240159
   0.26970159  0.53133164  0.79950581
   0.19838138  0.39717977  0.59778118
   0.06615071  0.13726028  0.20170273
   0.77061855  0.52950550  0.80023141
   0.69834113  0.40477722  0.60180597
   0.53545109  0.06848720  0.60234413
   0.33365798  0.66123776  0.00036913
   0.23100210  0.46796683  0.19916167
SQS with 1 vacancy for VFE and VRV      
           1
    -3.150218   -3.144451   -3.162451
     1.574138    1.574031   -7.906961
     7.931057   -7.918815   -1.579050
   Nb   Mo   Ta   Ti   W 
   6   6   6   6   5
Direct configuration=     3
   0.96376234  0.93394948  0.39874980
   0.63286770  0.26593007  0.40092130
   0.49990826  0.00321116 -0.00199590
  -0.00009864  0.00097559  0.00102159
   0.09741565  0.20276602  0.79909708
   0.03561353  0.06768846  0.59851957
   0.90013369  0.79927630  0.20148072
   0.80270333  0.59654218  0.39937713
   0.73345435  0.46652208  0.19946753
   0.66654008  0.33633824 -0.00060835
   0.36811648  0.73072665  0.60078719
   0.13293355  0.26917825  0.39983807
   0.83420475  0.66492827  0.00105537
   0.92975414  0.87095306  0.79964891
   0.56678224  0.13376316  0.19799116
   0.40278766  0.79614781  0.19972479
   0.43410507  0.86211506  0.79781437
   0.30040621  0.60088713  0.40127037
   0.86366799  0.73318878  0.59965349
   0.46640103  0.93208159  0.40198919
   0.16593386  0.33461083  0.00190049
   0.26906236  0.53175232  0.79960865
   0.19872157  0.39776986  0.59824438
   0.06626039  0.13643739  0.20134744
   0.76978512  0.53030915  0.80018273
   0.69869163  0.40377570  0.60142926
   0.53500531  0.06810676  0.60185474
   0.33358672  0.66237523  0.00029205
   0.23149361  0.46769342  0.19933685
SQS with 1 vacancy for VFE and VRV      
           1
    -3.150366   -3.139250   -3.175019
     1.573477    1.572749   -7.938967
     7.986476   -7.962475   -1.583722
   Nb   Mo   Ta   Ti   W 
   6   6   6   6   5
Direct configuration=     4
   0.96066719  0.93464492  0.39754860
   0.63238093  0.26521968  0.40162571
   0.50010904  0.00645356 -0.00460169
   0.00017035  0.00201452  0.00198893
   0.09528459  0.20515007  0.79826045
   0.03803561  0.06870141  0.59696914
   0.90018518  0.79870488  0.20268660
   0.80528621  0.59344338  0.39895298
   0.73363792  0.46604531  0.19913345
   0.66621789  0.33907500 -0.00151264
   0.36944895  0.72803081  0.60150661
   0.13256787  0.27133934  0.39974807
   0.83478619  0.66393366  0.00183938
   0.92516820  0.87588556  0.79929061
   0.56677865  0.13394086  0.19627187
   0.40540222  0.79288702  0.19950483
   0.43442153  0.85775335  0.79598516
   0.30093481  0.60147149  0.40267343
   0.86077930  0.73311414  0.59921969
   0.46617915  0.93071714  0.40391834
   0.16543105  0.33581065  0.00369064
   0.27204257  0.52930757  0.79912437
   0.19739044  0.39587525  0.59652731
   0.06591729  0.13955501  0.20283295
   0.77303783  0.52735314  0.80038000
   0.69700107  0.40709662  0.60317249
   0.53694747  0.06957826  0.60407508
   0.33380585  0.65839490  0.00032317
   0.22998466  0.46850250  0.19886448
SQS with 1 vacancy for VFE and VRV      
           1
    -3.150480   -3.135262   -3.184654
     1.572971    1.571767   -7.963505
     8.028961   -7.995946   -1.587303
   Nb   Mo   Ta   Ti   W 
   6   6   6   6   5
Direct configuration=     5
   0.95829170  0.93518030  0.39663263
   0.63200979  0.26467742  0.40216227
   0.50025453  0.00893110 -0.00658702
   0.00037637  0.00280802  0.00272596
   0.09364617  0.20697455  0.79762243
   0.03988877  0.06947248  0.59578850
   0.90022717  0.79826810  0.20360534
   0.80727031  0.59107223  0.39863059
   0.73377889  0.46568077  0.19887899
   0.66596558  0.34116672 -0.00220176
   0.37047545  0.72596908  0.60205514
   0.13228420  0.27299119  0.39967933
   0.83523449  0.66317285  0.00243688
   0.92164472  0.87966048  0.79901630
   0.56677325  0.13407675  0.19496199
   0.40741112  0.79039204  0.19933802
   0.43466807  0.85442010  0.79459175
   0.30134111  0.60191728  0.40374249
   0.85856429  0.73306076  0.59888844
   0.46601375  0.92967468  0.40538809
   0.16504629  0.33672801  0.00505433
   0.27433021  0.52743572  0.79875626
   0.19637039  0.39442928  0.59521884
   0.06565169  0.14193766  0.20396453
   0.77553608  0.52509023  0.80053122
   0.69570254  0.40963631  0.60450007
   0.53843726  0.07070012  0.60576716
   0.33397979  0.65535308  0.00034705
   0.22882602  0.46912268  0.19850418
SQS with 1 vacancy for VFE and VRV      
           1
    -3.153897   -3.139116   -3.188922
     1.577375    1.572484   -7.975651
     8.042132   -8.006675   -1.592960
   Nb   Mo   Ta   Ti   W 
   6   6   6   6   5
Direct configuration=     6
   0.95806820  0.93503927  0.39666232
   0.63196533  0.26494996  0.40190350
   0.50125422  0.00840478 -0.00781345
   0.00156906  0.00253553  0.00295641
   0.09462471  0.20581721  0.79772956
   0.04070196  0.06946389  0.59548008
   0.90031075  0.79836281  0.20296046
   0.80684387  0.59160145  0.39899121
   0.73334516  0.46541497  0.19927328
   0.66574103  0.34083533 -0.00240761
   0.36988875  0.72581185  0.60189375
   0.13243420  0.27236660  0.39969537
   0.83394475  0.66504779  0.00186363
   0.91983338  0.88079293  0.79903478
   0.56661854  0.13378039  0.19523368
   0.40728941  0.79106479  0.19910515
   0.43374660  0.85419079  0.79523017
   0.30165267  0.60148629  0.40379108
   0.85858314  0.73338455  0.59879548
   0.46597208  0.92938714  0.40547704
   0.16514527  0.33689742  0.00499349
   0.27546337  0.52608190  0.79865227
   0.19610044  0.39501315  0.59505341
   0.06544715  0.14211273  0.20453267
   0.77541474  0.52573865  0.80071784
   0.69512598  0.40886330  0.60476622
   0.53916597  0.07042841  0.60636024
   0.33396571  0.65625995 -0.00010096
   0.22978357  0.46886616  0.19916893
SQS with 1 vacancy for VFE and VRV      
           1
    -3.159548   -3.145492   -3.195983
     1.584659    1.573671   -7.995742
     8.063917   -8.024423   -1.602317
   Nb   Mo   Ta   Ti   W 
   6   6   6   6   5
Direct configuration=     7
   0.95769893  0.93480633  0.39671142
   0.63189185  0.26540030  0.40147599
   0.50290556  0.00753633 -0.00983899
   0.00353964  0.00208518  0.00333709
   0.09624135  0.20390551  0.79790690
   0.04204544  0.06944987  0.59497063
   0.90044868  0.79851974  0.20189527
   0.80613944  0.59247530  0.39958666
   0.73262862  0.46497568  0.19992465
   0.66536994  0.34028816 -0.00274747
   0.36891934  0.72555234  0.60162727
   0.13268195  0.27133496  0.39972209
   0.83181390  0.66814513  0.00091615
   0.91684083  0.88266352  0.79906496
   0.56636298  0.13329070  0.19568256
   0.40708834  0.79217615  0.19872027
   0.43222427  0.85381165  0.79628477
   0.30216737  0.60077437  0.40387147
   0.85861429  0.73391940  0.59864182
   0.46590322  0.92891215  0.40562407
   0.16530882  0.33717726  0.00489295
   0.27733540  0.52384582  0.79848097
   0.19565444  0.39597767  0.59477995
   0.06510936  0.14240145  0.20547101
   0.77521438  0.52680950  0.80102583
   0.69417338  0.40758639  0.60520614
   0.54037005  0.06997910  0.60733989
   0.33394245  0.65775815 -0.00084126
   0.23136577  0.46844188  0.20026696
SQS with 1 vacancy for VFE and VRV      
           1
    -3.157550   -3.143238   -3.193486
     1.582083    1.573251   -7.988639
     8.056215   -8.018148   -1.599009
   Nb   Mo   Ta   Ti   W 
   6   6   6   6   5
Direct configuration=     8
   0.95782924  0.93488849  0.39669406
   0.63191780  0.26524135  0.40162683
   0.50232305  0.00784212 -0.00912468
   0.00284426  0.00224418  0.00320280
   0.09567094  0.20457984  0.79784413
   0.04157141  0.06945472  0.59515033
   0.90040009  0.79846411  0.20227098
   0.80638793  0.59216725  0.39937676
   0.73288143  0.46513077  0.19969484
   0.66550093  0.34048103 -0.00262768
   0.36926145  0.72564376  0.60172120
   0.13259456  0.27169882  0.39971254
   0.83256578  0.66705241  0.00125070
   0.91789675  0.88200370  0.79905451
   0.56645314  0.13346352  0.19552417
   0.40715929  0.79178408  0.19885616
   0.43276138  0.85394560  0.79591274
   0.30198577  0.60102549  0.40384303
   0.85860329  0.73373073  0.59869609
   0.46592753  0.92907971  0.40557215
   0.16525111  0.33707854  0.00492845
   0.27667490  0.52463447  0.79854112
   0.19581181  0.39563741  0.59487652
   0.06522847  0.14229987  0.20514010
   0.77528502  0.52643191  0.80091734
   0.69450953  0.40803683  0.60505080
   0.53994510  0.07013788  0.60699433
   0.33395067  0.65722955 -0.00057996
   0.23080738  0.46859187  0.19987966
SQS with 1 vacancy for VFE and VRV      
           1
    -3.152577   -3.138461   -3.189106
     1.580741    1.569438   -7.977417
     8.047552   -8.007864   -1.598926
   Nb   Mo   Ta   Ti   W 
   6   6   6   6   5
Direct configuration=     9
   0.95764095  0.93473151  0.39666280
   0.63193819  0.26534884  0.40153738
   0.50319785  0.00762282 -0.01014757
   0.00381307  0.00208209  0.00341729
   0.09633395  0.20378432  0.79793729
   0.04228222  0.06940547  0.59491415
   0.90048596  0.79850003  0.20182207
   0.80607099  0.59249854  0.39963686
   0.73256948  0.46514063  0.19992332
   0.66531308  0.34038574 -0.00275239
   0.36888519  0.72542201  0.60164389
   0.13272664  0.27128502  0.39974528
   0.83176588  0.66826316  0.00086321
   0.91630567  0.88301058  0.79896104
   0.56645251  0.13318479  0.19563179
   0.40717638  0.79219558  0.19868992
   0.43182783  0.85376511  0.79628996
   0.30214122  0.60080524  0.40381556
   0.85848666  0.73401276  0.59863766
   0.46593660  0.92881309  0.40565645
   0.16519059  0.33733327  0.00495315
   0.27772834  0.52347007  0.79848487
   0.19547192  0.39601388  0.59474181
   0.06491602  0.14252027  0.20566214
   0.77533218  0.52670400  0.80105008
   0.69408687  0.40746437  0.60529017
   0.54054410  0.06995881  0.60747280
   0.33399799  0.65777876 -0.00082630
   0.23138164  0.46849924  0.20028534
SQS with 1 vacancy for VFE and VRV      
           1
    -3.140879   -3.127225   -3.178801
     1.577583    1.560467   -7.951017
     8.027174   -7.983668   -1.598732
   Nb   Mo   Ta   Ti   W 
   6   6   6   6   5
Direct configuration=    10
   0.95719734  0.93436172  0.39658923
   0.63198620  0.26560214  0.40132665
   0.50525873  0.00710671 -0.01255675
   0.00609580  0.00169993  0.00392251
   0.09789625  0.20190992  0.79815698
   0.04395691  0.06928950  0.59435788
   0.90068814  0.79858496  0.20076474
   0.80532426  0.59327894  0.40024938
   0.73183456  0.46516376  0.20046147
   0.66487046  0.34016133 -0.00304606
   0.36799873  0.72489967  0.60146188
   0.13303792  0.27031008  0.39982254
   0.82988088  0.67111603 -0.00004986
   0.91255669  0.88538304  0.79874055
   0.56645112  0.13252805  0.19588536
   0.40721653  0.79316519  0.19829822
   0.42962842  0.85333974  0.79717852
   0.30250753  0.60028632  0.40375095
   0.85821178  0.73467729  0.59849994
   0.46595807  0.92818488  0.40585510
   0.16504796  0.33793339  0.00501123
   0.28021058  0.52072664  0.79835280
   0.19467098  0.39690099  0.59442439
   0.06417996  0.14303925  0.20689164
   0.77544329  0.52734497  0.80136261
   0.69309120  0.40611554  0.60585417
   0.54195559  0.06953654  0.60859979
   0.33410932  0.65907284 -0.00140670
   0.23273482  0.46828065  0.20124086
SQS with 1 vacancy for VFE and VRV      
           1
    -3.147226   -3.133321   -3.184392
     1.579296    1.565334   -7.965341
     8.038230   -7.996796   -1.598838
   Nb   Mo   Ta   Ti   W 
   6   6   6   6   5
Direct configuration=    11
   0.95743887  0.93456299  0.39662918
   0.63196012  0.26546416  0.40144135
   0.50413689  0.00738700 -0.01124604
   0.00485270  0.00190834  0.00364758
   0.09704532  0.20293063  0.79803710
   0.04304509  0.06935256  0.59466053
   0.90057823  0.79853836  0.20134003
   0.80573085  0.59285421  0.39991627
   0.73223465  0.46515130  0.20016867
   0.66511150  0.34028337 -0.00288633
   0.36848140  0.72518393  0.60156079
   0.13286830  0.27084094  0.39978031
   0.83090775  0.66956232  0.00044746
   0.91459836  0.88409099  0.79886093
   0.56645176  0.13288571  0.19574726
   0.40719484  0.79263715  0.19851153
   0.43082584  0.85357149  0.79669496
   0.30230803  0.60056885  0.40378601
   0.85836155  0.73431542  0.59857500
   0.46594628  0.92852698  0.40574690
   0.16512568  0.33760666  0.00497974
   0.27885869  0.52222044  0.79842415
   0.19510725  0.39641783  0.59459726
   0.06458061  0.14275708  0.20622279
   0.77538281  0.52699611  0.80119270
   0.69363312  0.40685004  0.60554702
   0.54118678  0.06976695  0.60798655
   0.33404893  0.65836808 -0.00109065
   0.23199781  0.46840010  0.20072096
SQS with 1 vacancy for VFE and VRV      
           1
    -3.147203   -3.133209   -3.184067
     1.578634    1.564527   -7.963144
     8.040178   -7.998677   -1.598523
   Nb   Mo   Ta   Ti   W 
   6   6   6   6   5
Direct configuration=    12
   0.95734380  0.93447624  0.39657643
   0.63206644  0.26529380  0.40160372
   0.50446949  0.00783276 -0.01164508
   0.00512571  0.00203190  0.00374172
   0.09709887  0.20293050  0.79808210
   0.04332679  0.06923508  0.59462012
   0.90060710  0.79853954  0.20131049
   0.80562818  0.59287046  0.39995258
   0.73225522  0.46545555  0.20011974
   0.66505436  0.34043235 -0.00290246
   0.36842082  0.72501900  0.60164156
   0.13297119  0.27080186  0.39985455
   0.83119656  0.66939306  0.00044570
   0.91389820  0.88457795  0.79859929
   0.56656874  0.13272554  0.19562862
   0.40733959  0.79266726  0.19848251
   0.43027769  0.85344253  0.79655537
   0.30218425  0.60065767  0.40370730
   0.85817433  0.73439202  0.59858018
   0.46601355  0.92838118  0.40578180
   0.16491072  0.33785942  0.00507040
   0.27947411  0.52158315  0.79844615
   0.19480971  0.39641135  0.59459615
   0.06428103  0.14296087  0.20646280
   0.77566008  0.52670293  0.80120137
   0.69353957  0.40661873  0.60571413
   0.54132538  0.06987385  0.60816855
   0.33411671  0.65829089 -0.00103458
   0.23186182  0.46854253  0.20063880
SQS with 1 vacancy for VFE and VRV      
           1
    -3.147135   -3.132871   -3.183090
     1.576649    1.562104   -7.956555
     8.046022   -8.004322   -1.597579
   Nb   Mo   Ta   Ti   W 
   6   6   6   6   5
Direct configuration=    13
   0.95705861  0.93421590  0.39641823
   0.63238545  0.26478263  0.40209073
   0.50546719  0.00917037 -0.01284192
   0.00594475  0.00240270  0.00402408
   0.09725953  0.20293013  0.79821709
   0.04417193  0.06888254  0.59449892
   0.90069371  0.79854309  0.20122187
   0.80532017  0.59291922  0.40006148
   0.73231683  0.46636857  0.19997299
   0.66488292  0.34087941 -0.00295084
   0.36823914  0.72452406  0.60188380
   0.13327989  0.27068461  0.40007720
   0.83206308  0.66888517  0.00044043
   0.91179751  0.88603918  0.79781455
   0.56691971  0.13224490  0.19527277
   0.40777383  0.79275763  0.19839548
   0.42863318  0.85305548  0.79613668
   0.30181289  0.60092418  0.40347122
   0.85761263  0.73462189  0.59859572
   0.46621539  0.92794363  0.40588650
   0.16426574  0.33861794  0.00534228
   0.28132058  0.51967077  0.79851216
   0.19391708  0.39639188  0.59459283
   0.06338222  0.14357248  0.20718265
   0.77649201  0.52582313  0.80122739
   0.69325900  0.40592461  0.60621533
   0.54174119  0.07019469  0.60871440
   0.33432009  0.65805928 -0.00086641
   0.23145377  0.46896994  0.20039239
SQS with 1 vacancy for VFE and VRV      
           1
    -3.146998   -3.132196   -3.181137
     1.572677    1.557258   -7.943375
     8.057710   -8.015611   -1.595692
   Nb   Mo   Ta   Ti   W 
   6   6   6   6   5
Direct configuration=    14
   0.95648825  0.93369461  0.39610206
   0.63302392  0.26375959  0.40306410
   0.50746183  0.01184774 -0.01523394
   0.00758290  0.00314526  0.00458840
   0.09758093  0.20292947  0.79848688
   0.04586251  0.06817688  0.59425673
   0.90086693  0.79855016  0.20104476
   0.80470408  0.59301681  0.40027910
   0.73243961  0.46819625  0.19967964
   0.66453978  0.34177432 -0.00304757
   0.36787604  0.72353334  0.60236796
   0.13389746  0.27045004  0.40052220
   0.83379654  0.66786857  0.00042995
   0.90759479  0.88896368  0.79624603
   0.56762185  0.13128261  0.19456163
   0.40864233  0.79293856  0.19822157
   0.42534390  0.85228022  0.79529987
   0.30106988  0.60145754  0.40299937
   0.85648900  0.73508196  0.59862674
   0.46661935  0.92706781  0.40609579
   0.16297538  0.34013639  0.00588559
   0.28501483  0.51584277  0.79864427
   0.19213164  0.39635278  0.59458617
   0.06158433  0.14479698  0.20862125
   0.77815645  0.52406205  0.80127947
   0.69269825  0.40453525  0.60721706
   0.54257288  0.07083725  0.60980532
   0.33472703  0.65759574 -0.00053027
   0.23063733  0.46982538  0.19989989
SQS with 1 vacancy for VFE and VRV      
           1
    -3.147078   -3.132592   -3.182284
     1.575009    1.560103   -7.951113
     8.050848   -8.008983   -1.596800
   Nb   Mo   Ta   Ti   W 
   6   6   6   6   5
Direct configuration=    15
   0.95682310  0.93400138  0.39628742
   0.63264854  0.26436107  0.40249337
   0.50629158  0.01027324 -0.01383146
   0.00662101  0.00270818  0.00425754
   0.09739214  0.20292977  0.79832870
   0.04486955  0.06859187  0.59439867
   0.90076524  0.79854603  0.20114859
   0.80506587  0.59295941  0.40015153
   0.73236807  0.46712122  0.19985169
   0.66474156  0.34124797 -0.00299083
   0.36808892  0.72411602  0.60208407
   0.13353465  0.27058785  0.40026128
   0.83277828  0.66846640  0.00043603
   0.91006392  0.88724418  0.79716582
   0.56720936  0.13184876  0.19497852
   0.40813237  0.79283209  0.19832352
   0.42727546  0.85273676  0.79579052
   0.30150644  0.60114399  0.40327604
   0.85714898  0.73481143  0.59860859
   0.46638184  0.92758290  0.40597305
   0.16373349  0.33924318  0.00556713
   0.28284427  0.51809413  0.79856661
   0.19318014  0.39637595  0.59459011
   0.06264027  0.14407650  0.20777788
   0.77717850  0.52509780  0.80124885
   0.69302701  0.40535231  0.60662972
   0.54208447  0.07045893  0.60916573
   0.33448787  0.65786829 -0.00072737
   0.23111711  0.46932238  0.20018869
SQS with 1 vacancy for VFE and VRV      
           1
    -3.149275   -3.135396   -3.184000
     1.576505    1.561057   -7.955360
     8.055743   -8.014712   -1.598361
   Nb   Mo   Ta   Ti   W 
   6   6   6   6   5
Direct configuration=    16
   0.95684303  0.93393423  0.39634991
   0.63261805  0.26431002  0.40246230
   0.50677837  0.01083571 -0.01415491
   0.00677134  0.00290290  0.00417549
   0.09732125  0.20311898  0.79843924
   0.04504809  0.06843487  0.59432056
   0.90088835  0.79875183  0.20113696
   0.80495544  0.59283531  0.40011826
   0.73239839  0.46707515  0.20001091
   0.66481976  0.34135179 -0.00289679
   0.36805284  0.72386520  0.60211198
   0.13344301  0.27068329  0.40037008
   0.83284913  0.66873145  0.00023901
   0.90947781  0.88700357  0.79724101
   0.56705075  0.13197038  0.19499349
   0.40830234  0.79310653  0.19813924
   0.42743687  0.85257522  0.79566280
   0.30146638  0.60102736  0.40340740
   0.85689753  0.73465834  0.59856776
   0.46646375  0.92752566  0.40594722
   0.16360426  0.33930387  0.00567584
   0.28342880  0.51728173  0.79871223
   0.19286755  0.39630297  0.59462763
   0.06254142  0.14441710  0.20787772
   0.77716469  0.52490167  0.80119043
   0.69291937  0.40519399  0.60675852
   0.54166267  0.07062185  0.60912312
   0.33476146  0.65788126 -0.00079783
   0.23116728  0.46939780  0.20019039
SQS with 1 vacancy for VFE and VRV      
           1
    -3.150288   -3.136689   -3.184792
     1.577194    1.561498   -7.957318
     8.058000   -8.017354   -1.599080
   Nb   Mo   Ta   Ti   W 
   6   6   6   6   5
Direct configuration=    17
   0.95685221  0.93390329  0.39637871
   0.63260400  0.26428650  0.40244799
   0.50700273  0.01109496 -0.01430398
   0.00684063  0.00299265  0.00413767
   0.09728859  0.20320618  0.79849018
   0.04513036  0.06836252  0.59428457
   0.90094508  0.79884668  0.20113159
   0.80490455  0.59277812  0.40010293
   0.73241235  0.46705391  0.20008428
   0.66485580  0.34139964 -0.00285347
   0.36803620  0.72374960  0.60212485
   0.13340078  0.27072726  0.40042022
   0.83288181  0.66885360  0.00014821
   0.90920772  0.88689265  0.79727567
   0.56697767  0.13202643  0.19500039
   0.40838069  0.79323302  0.19805432
   0.42751124  0.85250078  0.79560395
   0.30144790  0.60097361  0.40346794
   0.85678166  0.73458777  0.59854896
   0.46650150  0.92749928  0.40593532
   0.16354470  0.33933183  0.00572594
   0.28369811  0.51690733  0.79877933
   0.19272351  0.39626933  0.59464493
   0.06249587  0.14457406  0.20792373
   0.77715833  0.52481128  0.80116352
   0.69286975  0.40512102  0.60681788
   0.54146832  0.07069691  0.60910350
   0.33488754  0.65788725 -0.00083031
   0.23119040  0.46943256  0.20019117
SQS with 1 vacancy for VFE and VRV      
           1
    -3.149580   -3.136598   -3.183629
     1.577540    1.561073   -7.954730
     8.055134   -8.015083   -1.599461
   Nb   Mo   Ta   Ti   W 
   6   6   6   6   5
Direct configuration=    18
   0.95692586  0.93384802  0.39643259
   0.63253871  0.26426843  0.40240444
   0.50736139  0.01148004 -0.01451151
   0.00696108  0.00313363  0.00404979
   0.09720773  0.20332693  0.79857260
   0.04514990  0.06823343  0.59426032
   0.90107789  0.79902103  0.20111444
   0.80481999  0.59268001  0.40007210
   0.73242020  0.46702522  0.20020306
   0.66493654  0.34148330 -0.00274475
   0.36801764  0.72353449  0.60212320
   0.13328685  0.27080849  0.40048191
   0.83288229  0.66909770  0.00002085
   0.90900026  0.88659875  0.79732244
   0.56688010  0.13217280  0.19503612
   0.40852099  0.79345300  0.19791331
   0.42763444  0.85238150  0.79551411
   0.30141963  0.60089571  0.40356776
   0.85658892  0.73443769  0.59850041
   0.46654362  0.92747718  0.40590086
   0.16348448  0.33936278  0.00581897
   0.28409000  0.51631166  0.79891436
   0.19249750  0.39618548  0.59468850
   0.06243327  0.14483183  0.20798485
   0.77708552  0.52472030  0.80112483
   0.69276552  0.40503309  0.60688072
   0.54113228  0.07076685  0.60901979
   0.33509002  0.65792324 -0.00088939
   0.23124740  0.46950743  0.20022332
SQS with 1 vacancy for VFE and VRV      
           1
    -3.147524   -3.136334   -3.180252
     1.578543    1.559840   -7.947219
     8.046816   -8.008493   -1.600565
   Nb   Mo   Ta   Ti   W 
   6   6   6   6   5
Direct configuration=    19
   0.95713955  0.93368764  0.39658896
   0.63234924  0.26421598  0.40227807
   0.50840241  0.01259777 -0.01511394
   0.00731067  0.00354286  0.00379469
   0.09697308  0.20367735  0.79881178
   0.04520655  0.06785877  0.59418996
   0.90146337  0.79952708  0.20106460
   0.80457459  0.59239526  0.39998264
   0.73244293  0.46694193  0.20054779
   0.66517083  0.34172609 -0.00242925
   0.36796373  0.72291020  0.60211847
   0.13295623  0.27104420  0.40066096
   0.83288384  0.66980613 -0.00034883
   0.90839809  0.88574571  0.79745823
   0.56659699  0.13259757  0.19513979
   0.40892825  0.79409150  0.19750402
   0.42799193  0.85203537  0.79525338
   0.30133751  0.60066960  0.40385747
   0.85602956  0.73400209  0.59835955
   0.46666585  0.92741308  0.40580086
   0.16330971  0.33945259  0.00608898
   0.28522696  0.51458295  0.79930630
   0.19184161  0.39594207  0.59481498
   0.06225166  0.14557990  0.20816222
   0.77687422  0.52445624  0.80101258
   0.69246301  0.40477785  0.60706310
   0.54015720  0.07096975  0.60877689
   0.33567762  0.65802776 -0.00106088
   0.23141282  0.46972470  0.20031664
SQS with 1 vacancy for VFE and VRV      
           1
    -3.148131   -3.137487   -3.180151
     1.580241    1.559725   -7.947667
     8.046909   -8.008073   -1.602389
   Nb   Mo   Ta   Ti   W 
   6   6   6   6   5
Direct configuration=    20
   0.95732567  0.93359998  0.39663273
   0.63220536  0.26413175  0.40230780
   0.50882661  0.01318994 -0.01543663
   0.00769017  0.00376934  0.00365347
   0.09683713  0.20368983  0.79888997
   0.04489750  0.06761615  0.59429328
   0.90173065  0.79980327  0.20097435
   0.80441451  0.59236962  0.39995470
   0.73242263  0.46719238  0.20060459
   0.66531761  0.34184116 -0.00221398
   0.36782854  0.72258822  0.60207366
   0.13277620  0.27109516  0.40073047
   0.83301260  0.67006342 -0.00042345
   0.90873298  0.88518232  0.79735351
   0.56655492  0.13282553  0.19521763
   0.40916804  0.79438090  0.19735140
   0.42783029  0.85187777  0.79517237
   0.30128236  0.60069584  0.40390424
   0.85573182  0.73375759  0.59825219
   0.46667583  0.92739455  0.40571488
   0.16328067  0.33959372  0.00624510
   0.28576463  0.51358415  0.79955213
   0.19149794  0.39576177  0.59494229
   0.06215784  0.14590067  0.20824815
   0.77678547  0.52445412  0.80100253
   0.69220893  0.40453282  0.60710470
   0.53978602  0.07092691  0.60863352
   0.33581665  0.65821066 -0.00111915
   0.23144045  0.46997048  0.20038354
SQS with 1 vacancy for VFE and VRV      
           1
    -3.149953   -3.140948   -3.179848
     1.585335    1.559382   -7.949010
     8.047188   -8.006813   -1.607861
   Nb   Mo   Ta   Ti   W 
   6   6   6   6   5
Direct configuration=    21
   0.95788387  0.93333707  0.39676404
   0.63177377  0.26387899  0.40239706
   0.51009930  0.01496658 -0.01640495
   0.00882855  0.00444893  0.00322968
   0.09642937  0.20372715  0.79912455
   0.04397041  0.06688820  0.59460336
   0.90253249  0.80063189  0.20070346
   0.80393437  0.59229268  0.39987091
   0.73236187  0.46794360  0.20077492
   0.66575789  0.34218622 -0.00156822
   0.36742289  0.72162239  0.60193938
   0.13223624  0.27124789  0.40093900
   0.83339893  0.67083530 -0.00064742
   0.90973710  0.88349250  0.79703951
   0.56642889  0.13350927  0.19545109
   0.40988740  0.79524918  0.19689339
   0.42734539  0.85140501  0.79492940
   0.30111696  0.60077448  0.40404453
   0.85483868  0.73302412  0.59793023
   0.46670576  0.92733904  0.40545693
   0.16319366  0.34001692  0.00671345
   0.28737669  0.51058812  0.80028993
   0.19046703  0.39522073  0.59532432
   0.06187661  0.14686282  0.20850586
   0.77651929  0.52444774  0.80097238
   0.69144671  0.40379769  0.60722962
   0.53867270  0.07079836  0.60820346
   0.33623374  0.65875940 -0.00129404
   0.23152346  0.47070769  0.20058415
SQS with 1 vacancy for VFE and VRV      
           1
    -3.149212   -3.139617   -3.179081
     1.584531    1.557770   -7.945727
     8.045402   -8.003319   -1.607676
   Nb   Mo   Ta   Ti   W 
   6   6   6   6   5
Direct configuration=    22
   0.95788673  0.93339502  0.39664399
   0.63161083  0.26381678  0.40263271
   0.51029903  0.01539162 -0.01674925
   0.00936158  0.00459530  0.00319265
   0.09601180  0.20346924  0.79910718
   0.04338954  0.06670114  0.59472631
   0.90272982  0.80084992  0.20054289
   0.80385701  0.59251347  0.39987575
   0.73236553  0.46864529  0.20063705
   0.66586493  0.34244645 -0.00138541
   0.36709117  0.72139617  0.60192321
   0.13203687  0.27112932  0.40098944
   0.83377378  0.67069222 -0.00051216
   0.91050013  0.88295061  0.79673483
   0.56664681  0.13361251  0.19541824
   0.40992581  0.79538165  0.19691204
   0.42725517  0.85139923  0.79486195
   0.30099126  0.60092058  0.40386696
   0.85460991  0.73282980  0.59782574
   0.46663610  0.92739376  0.40533980
   0.16334770  0.34036066  0.00687405
   0.28778261  0.50986892  0.80048413
   0.19028680  0.39492929  0.59542738
   0.06187218  0.14696561  0.20858011
   0.77662689  0.52438501  0.80112598
   0.69100488  0.40349870  0.60723583
   0.53867734  0.07028358  0.60827559
   0.33613520  0.65898984 -0.00118677
   0.23142259  0.47118830  0.20059977
SQS with 1 vacancy for VFE and VRV      
           1
    -3.148816   -3.138904   -3.178671
     1.584100    1.556908   -7.943970
     8.044446   -8.001449   -1.607578
   Nb   Mo   Ta   Ti   W 
   6   6   6   6   5
Direct configuration=    23
   0.95788825  0.93342604  0.39657977
   0.63152368  0.26378348  0.40275879
   0.51040581  0.01561907 -0.01693346
   0.00964673  0.00467361  0.00317285