  30  30   0   0
  0.1653808E+02  0.5559883E-09  0.8339825E-09  0.1146199E-08  0.5000000E-15
  1.000000000000000E-004
  CAR 
 Nb - Mo - Ta - Ti - V SQS               
     11.15936276    -50.57860389  301      6.27437936      1.00000000
    -50.579  0.0000E+00  0.0000E+00
    -50.373  0.0000E+00  0.0000E+00
    -50.167  0.0000E+00  0.0000E+00
    -49.961  0.0000E+00  0.0000E+00
    -49.755  0.0000E+00  0.0000E+00
    -49.550 -0.1108E-32 -0.2281E-33
    -49.344 -0.3234E-25 -0.6655E-26
    -49.138 -0.1096E-18 -0.2255E-19
    -48.932 -0.4307E-13 -0.8864E-14
    -48.726 -0.2039E-08 -0.4195E-09
    -48.521 -0.1131E-04 -0.2328E-05
    -48.315 -0.7137E-02 -0.1471E-02
    -48.109 -0.4533E+00 -0.9475E-01
    -47.903  0.3913E-01 -0.8669E-01
    -47.697  0.2706E+02  0.5482E+01
    -47.492  0.3034E+02  0.1173E+02
    -47.286  0.1986E+01  0.1213E+02
    -47.080 -0.6347E+00  0.1200E+02
    -46.874 -0.2119E-01  0.1200E+02
    -46.669 -0.7219E-04  0.1200E+02
    -46.463 -0.2832E-07  0.1200E+02
    -46.257 -0.1301E-11  0.1200E+02
    -46.051  0.0000E+00  0.1200E+02
    -45.845  0.0000E+00  0.1200E+02
    -45.640  0.0000E+00  0.1200E+02
    -45.434  0.0000E+00  0.1200E+02
    -45.228  0.0000E+00  0.1200E+02
    -45.022  0.0000E+00  0.1200E+02
    -44.816  0.0000E+00  0.1200E+02
    -44.611  0.0000E+00  0.1200E+02
    -44.405  0.0000E+00  0.1200E+02
    -44.199  0.0000E+00  0.1200E+02
    -43.993  0.0000E+00  0.1200E+02
    -43.787  0.0000E+00  0.1200E+02
    -43.582  0.0000E+00  0.1200E+02
    -43.376  0.0000E+00  0.1200E+02
    -43.170  0.0000E+00  0.1200E+02
    -42.964  0.0000E+00  0.1200E+02
    -42.758  0.0000E+00  0.1200E+02
    -42.553  0.0000E+00  0.1200E+02
    -42.347  0.0000E+00  0.1200E+02
    -42.141  0.0000E+00  0.1200E+02
    -41.935  0.0000E+00  0.1200E+02
    -41.729  0.0000E+00  0.1200E+02
    -41.524  0.0000E+00  0.1200E+02
    -41.318  0.0000E+00  0.1200E+02
    -41.112  0.0000E+00  0.1200E+02
    -40.906  0.0000E+00  0.1200E+02
    -40.701  0.0000E+00  0.1200E+02
    -40.495  0.0000E+00  0.1200E+02
    -40.289  0.0000E+00  0.1200E+02
    -40.083  0.0000E+00  0.1200E+02
    -39.877  0.0000E+00  0.1200E+02
    -39.672  0.0000E+00  0.1200E+02
    -39.466  0.0000E+00  0.1200E+02
    -39.260  0.0000E+00  0.1200E+02
    -39.054  0.0000E+00  0.1200E+02
    -38.848  0.0000E+00  0.1200E+02
    -38.643  0.0000E+00  0.1200E+02
    -38.437  0.0000E+00  0.1200E+02
    -38.231  0.0000E+00  0.1200E+02
    -38.025  0.0000E+00  0.1200E+02
    -37.819  0.0000E+00  0.1200E+02
    -37.614  0.0000E+00  0.1200E+02
    -37.408  0.0000E+00  0.1200E+02
    -37.202  0.0000E+00  0.1200E+02
    -36.996  0.0000E+00  0.1200E+02
    -36.790  0.0000E+00  0.1200E+02
    -36.585  0.0000E+00  0.1200E+02
    -36.379  0.0000E+00  0.1200E+02
    -36.173  0.0000E+00  0.1200E+02
    -35.967  0.0000E+00  0.1200E+02
    -35.761  0.0000E+00  0.1200E+02
    -35.556  0.0000E+00  0.1200E+02
    -35.350  0.0000E+00  0.1200E+02
    -35.144  0.0000E+00  0.1200E+02
    -34.938  0.0000E+00  0.1200E+02
    -34.733  0.0000E+00  0.1200E+02
    -34.527  0.0000E+00  0.1200E+02
    -34.321  0.0000E+00  0.1200E+02
    -34.115  0.0000E+00  0.1200E+02
    -33.909  0.0000E+00  0.1200E+02
    -33.704  0.0000E+00  0.1200E+02
    -33.498  0.0000E+00  0.1200E+02
    -33.292  0.0000E+00  0.1200E+02
    -33.086  0.0000E+00  0.1200E+02
    -32.880  0.0000E+00  0.1200E+02
    -32.675  0.0000E+00  0.1200E+02
    -32.469  0.0000E+00  0.1200E+02
    -32.263  0.0000E+00  0.1200E+02
    -32.057  0.0000E+00  0.1200E+02
    -31.851  0.0000E+00  0.1200E+02
    -31.646  0.0000E+00  0.1200E+02
    -31.440  0.0000E+00  0.1200E+02
    -31.234  0.0000E+00  0.1200E+02
    -31.028  0.0000E+00  0.1200E+02
    -30.822  0.0000E+00  0.1200E+02
    -30.617  0.0000E+00  0.1200E+02
    -30.411  0.0000E+00  0.1200E+02
    -30.205  0.0000E+00  0.1200E+02
    -29.999  0.0000E+00  0.1200E+02
    -29.793  0.0000E+00  0.1200E+02
    -29.588  0.0000E+00  0.1200E+02
    -29.382  0.0000E+00  0.1200E+02
    -29.176  0.0000E+00  0.1200E+02
    -28.970  0.0000E+00  0.1200E+02
    -28.765  0.0000E+00  0.1200E+02
    -28.559  0.0000E+00  0.1200E+02
    -28.353  0.0000E+00  0.1200E+02
    -28.147  0.0000E+00  0.1200E+02
    -27.941  0.0000E+00  0.1200E+02
    -27.736  0.0000E+00  0.1200E+02
    -27.530  0.0000E+00  0.1200E+02
    -27.324  0.0000E+00  0.1200E+02
    -27.118  0.0000E+00  0.1200E+02
    -26.912  0.0000E+00  0.1200E+02
    -26.707  0.0000E+00  0.1200E+02
    -26.501  0.0000E+00  0.1200E+02
    -26.295  0.0000E+00  0.1200E+02
    -26.089 -0.9301E-29  0.1200E+02
    -25.883 -0.6941E-22  0.1200E+02
    -25.678 -0.6128E-16  0.1200E+02
    -25.472 -0.6155E-11  0.1200E+02
    -25.266 -0.7444E-07  0.1200E+02
    -25.060 -0.1064E-03  0.1200E+02
    -24.854 -0.1830E-01  0.1200E+02
    -24.649 -0.3295E+00  0.1193E+02
    -24.443  0.1598E+01  0.1226E+02
    -24.237  0.1318E+02  0.1497E+02
    -24.031  0.2117E+02  0.1933E+02
    -23.825  0.5408E+02  0.3045E+02
    -23.620  0.5461E+02  0.4169E+02
    -23.414  0.2235E+02  0.4629E+02
    -23.208  0.7796E+01  0.4790E+02
    -23.002  0.6899E+00  0.4804E+02
    -22.797 -0.1782E+00  0.4800E+02
    -22.591 -0.1218E-01  0.4800E+02
    -22.385 -0.7848E-04  0.4800E+02
    -22.179 -0.5534E-07  0.4800E+02
    -21.973 -0.4416E-11  0.4800E+02
    -21.768  0.0000E+00  0.4800E+02
    -21.562  0.0000E+00  0.4800E+02
    -21.356  0.0000E+00  0.4800E+02
    -21.150  0.0000E+00  0.4800E+02
    -20.944  0.0000E+00  0.4800E+02
    -20.739  0.0000E+00  0.4800E+02
    -20.533  0.0000E+00  0.4800E+02
    -20.327  0.0000E+00  0.4800E+02
    -20.121  0.0000E+00  0.4800E+02
    -19.915  0.0000E+00  0.4800E+02
    -19.710  0.0000E+00  0.4800E+02
    -19.504  0.0000E+00  0.4800E+02
    -19.298  0.0000E+00  0.4800E+02
    -19.092  0.0000E+00  0.4800E+02
    -18.886  0.0000E+00  0.4800E+02
    -18.681  0.0000E+00  0.4800E+02
    -18.475  0.0000E+00  0.4800E+02
    -18.269  0.0000E+00  0.4800E+02
    -18.063  0.0000E+00  0.4800E+02
    -17.857  0.0000E+00  0.4800E+02
    -17.652  0.0000E+00  0.4800E+02
    -17.446  0.0000E+00  0.4800E+02
    -17.240  0.0000E+00  0.4800E+02
    -17.034  0.0000E+00  0.4800E+02
    -16.829  0.0000E+00  0.4800E+02
    -16.623  0.0000E+00  0.4800E+02
    -16.417  0.0000E+00  0.4800E+02
    -16.211  0.0000E+00  0.4800E+02
    -16.005  0.0000E+00  0.4800E+02
    -15.800  0.0000E+00  0.4800E+02
    -15.594  0.0000E+00  0.4800E+02
    -15.388  0.0000E+00  0.4800E+02
    -15.182  0.0000E+00  0.4800E+02
    -14.976  0.0000E+00  0.4800E+02
    -14.771  0.0000E+00  0.4800E+02
    -14.565  0.0000E+00  0.4800E+02
    -14.359  0.0000E+00  0.4800E+02
    -14.153  0.0000E+00  0.4800E+02
    -13.947  0.0000E+00  0.4800E+02
    -13.742  0.0000E+00  0.4800E+02
    -13.536  0.0000E+00  0.4800E+02
    -13.330  0.0000E+00  0.4800E+02
    -13.124  0.0000E+00  0.4800E+02
    -12.918  0.0000E+00  0.4800E+02
    -12.713  0.0000E+00  0.4800E+02
    -12.507  0.0000E+00  0.4800E+02
    -12.301  0.0000E+00  0.4800E+02
    -12.095  0.0000E+00  0.4800E+02
    -11.889  0.0000E+00  0.4800E+02
    -11.684  0.0000E+00  0.4800E+02
    -11.478  0.0000E+00  0.4800E+02
    -11.272  0.0000E+00  0.4800E+02
    -11.066  0.0000E+00  0.4800E+02
    -10.861  0.0000E+00  0.4800E+02
    -10.655  0.0000E+00  0.4800E+02
    -10.449  0.0000E+00  0.4800E+02
    -10.243  0.0000E+00  0.4800E+02
    -10.037  0.0000E+00  0.4800E+02
     -9.832  0.0000E+00  0.4800E+02
     -9.626  0.0000E+00  0.4800E+02
     -9.420  0.0000E+00  0.4800E+02
     -9.214  0.0000E+00  0.4800E+02
     -9.008  0.0000E+00  0.4800E+02
     -8.803  0.0000E+00  0.4800E+02
     -8.597  0.0000E+00  0.4800E+02
     -8.391  0.0000E+00  0.4800E+02
     -8.185  0.0000E+00  0.4800E+02
     -7.979  0.0000E+00  0.4800E+02
     -7.774  0.0000E+00  0.4800E+02
     -7.568  0.0000E+00  0.4800E+02
     -7.362  0.0000E+00  0.4800E+02
     -7.156  0.0000E+00  0.4800E+02
     -6.950  0.0000E+00  0.4800E+02
     -6.745  0.0000E+00  0.4800E+02
     -6.539  0.0000E+00  0.4800E+02
     -6.333  0.0000E+00  0.4800E+02
     -6.127  0.0000E+00  0.4800E+02
     -5.921  0.0000E+00  0.4800E+02
     -5.716  0.0000E+00  0.4800E+02
     -5.510  0.0000E+00  0.4800E+02
     -5.304  0.0000E+00  0.4800E+02
     -5.098  0.0000E+00  0.4800E+02
     -4.893  0.0000E+00  0.4800E+02
     -4.687  0.0000E+00  0.4800E+02
     -4.481  0.0000E+00  0.4800E+02
     -4.275  0.0000E+00  0.4800E+02
     -4.069  0.0000E+00  0.4800E+02
     -3.864  0.0000E+00  0.4800E+02
     -3.658  0.0000E+00  0.4800E+02
     -3.452  0.0000E+00  0.4800E+02
     -3.246  0.0000E+00  0.4800E+02
     -3.040  0.0000E+00  0.4800E+02
     -2.835  0.0000E+00  0.4800E+02
     -2.629  0.0000E+00  0.4800E+02
     -2.423  0.0000E+00  0.4800E+02
     -2.217 -0.1249E-35  0.4800E+02
     -2.011 -0.4332E-28  0.4800E+02
     -1.806 -0.1774E-21  0.4800E+02
     -1.600 -0.8221E-16  0.4800E+02
     -1.394 -0.4826E-11  0.4800E+02
     -1.188 -0.3280E-07  0.4800E+02
     -0.982 -0.2625E-04  0.4800E+02
     -0.777 -0.2378E-02  0.4800E+02
     -0.571 -0.1540E-01  0.4800E+02
     -0.365  0.1528E+00  0.4803E+02
     -0.159  0.7555E+00  0.4818E+02
      0.047  0.1541E+01  0.4850E+02
      0.252  0.2036E+01  0.4892E+02
      0.458  0.1583E+01  0.4925E+02
      0.664  0.2149E+01  0.4969E+02
      0.870  0.3202E+01  0.5035E+02
      1.075  0.3651E+01  0.5110E+02
      1.281  0.2796E+01  0.5167E+02
      1.487  0.3624E+01  0.5242E+02
      1.693  0.4894E+01  0.5343E+02
      1.899  0.5104E+01  0.5448E+02
      2.104  0.6754E+01  0.5587E+02
      2.310  0.8548E+01  0.5763E+02
      2.516  0.1260E+02  0.6022E+02
      2.722  0.2000E+02  0.6434E+02
      2.928  0.2416E+02  0.6931E+02
      3.133  0.2865E+02  0.7520E+02
      3.339  0.3127E+02  0.8164E+02
      3.545  0.3147E+02  0.8811E+02
      3.751  0.3282E+02  0.9487E+02
      3.957  0.3273E+02  0.1016E+03
      4.162  0.2936E+02  0.1076E+03
      4.368  0.2314E+02  0.1124E+03
      4.574  0.2872E+02  0.1183E+03
      4.780  0.3919E+02  0.1264E+03
      4.986  0.4634E+02  0.1359E+03
      5.191  0.4788E+02  0.1458E+03
      5.397  0.4583E+02  0.1552E+03
      5.603  0.4300E+02  0.1641E+03
      5.809  0.4693E+02  0.1737E+03
      6.015  0.5247E+02  0.1845E+03
      6.220  0.5276E+02  0.1954E+03
      6.426  0.4623E+02  0.2049E+03
      6.632  0.3674E+02  0.2124E+03
      6.838  0.2335E+02  0.2172E+03
      7.043  0.1440E+02  0.2202E+03
      7.249  0.1351E+02  0.2230E+03
      7.455  0.1662E+02  0.2264E+03
      7.661  0.1961E+02  0.2304E+03
      7.867  0.2141E+02  0.2348E+03
      8.072  0.1665E+02  0.2383E+03
      8.278  0.7597E+01  0.2398E+03
      8.484  0.9612E+00  0.2400E+03
      8.690 -0.1644E+00  0.2400E+03
      8.896 -0.1454E-01  0.2400E+03
      9.101 -0.1535E-03  0.2400E+03
      9.307 -0.2144E-06  0.2400E+03
      9.513 -0.3720E-10  0.2400E+03
      9.719 -0.7941E-15  0.2400E+03
      9.925  0.0000E+00  0.2400E+03
     10.130  0.0000E+00  0.2400E+03
     10.336  0.0000E+00  0.2400E+03
     10.542  0.0000E+00  0.2400E+03
     10.748  0.0000E+00  0.2400E+03
     10.954  0.0000E+00  0.2400E+03
     11.159  0.0000E+00  0.2400E+03
