   30   30    1    1
  0.1653808E+02  0.5559883E-09  0.8339825E-09  0.1146199E-08  0.5000000E-15
  1.000000000000000E-004
  CAR 
 Nb - Mo - Ta - Ti - V SQS               
    198     63    120
 
  0.0000000E+00  0.0000000E+00  0.0000000E+00  0.8000000E-02
    1      -47.772333   1.000000
    2      -47.752618   1.000000
    3      -47.714840   1.000000
    4      -47.671139   1.000000
    5      -47.642212   1.000000
    6      -47.546503   1.000000
    7      -24.435706   1.000000
    8      -24.299147   1.000000
    9      -24.158087   1.000000
   10      -24.118778   1.000000
   11      -23.916880   1.000000
   12      -23.911212   1.000000
   13      -23.907446   1.000000
   14      -23.862209   1.000000
   15      -23.847500   1.000000
   16      -23.830019   1.000000
   17      -23.810347   1.000000
   18      -23.767207   1.000000
   19      -23.723556   1.000000
   20      -23.707174   1.000000
   21      -23.585158   1.000000
   22      -23.567985   1.000000
   23      -23.432377   1.000000
   24      -23.221490   1.000000
   25       -0.416656   1.000000
   26        0.848518   1.000000
   27        1.202667   1.000000
   28        2.019216   1.000000
   29        2.182416   1.000000
   30        2.251732   1.000000
   31        2.373588   1.000000
   32        2.505767   1.000000
   33        2.539685   1.000000
   34        2.628081   1.000000
   35        2.670770   1.000000
   36        2.751343   1.000000
   37        2.811731   1.000000
   38        2.852386   1.000000
   39        2.985182   1.000000
   40        3.031608   1.000000
   41        3.107031   1.000000
   42        3.220873   1.000000
   43        3.322092   1.000000
   44        3.358213   1.000000
   45        3.413891   1.000000
   46        3.469420   1.000000
   47        3.536837   1.000000
   48        3.554011   1.000000
   49        3.680063   1.000000
   50        3.729424   1.000000
   51        3.813683   1.000000
   52        3.878924   1.000000
   53        3.946661   1.000000
   54        3.982449   1.000000
   55        4.120124   1.000000
   56        4.181648   1.000000
   57        4.260962   1.000000
   58        4.302094   1.000000
   59        4.455454   1.000000
   60        4.489920   1.000000
   61        4.567444   1.000000
   62        4.612809   1.000000
   63        4.620201   1.000000
   64        4.705727   1.000000
   65        4.710902   1.000000
   66        4.801249   1.000000
   67        4.816901   1.000000
   68        4.898427   1.000000
   69        4.918558   1.000000
   70        4.965930   1.000000
   71        5.019601   1.000000
   72        5.045766   1.000000
   73        5.107625   1.000000
   74        5.152725   1.000000
   75        5.164762   1.000000
   76        5.177595   1.000000
   77        5.201440   1.000000
   78        5.313186   1.000000
   79        5.376108   1.000000
   80        5.461741   1.000000
   81        5.615604   1.000016
   82        5.667765   1.000078
   83        5.717428   1.000296
   84        5.751836   1.000690
   85        5.791989   1.001701
   86        5.853187   1.005593
   87        5.911650   1.013912
   88        5.934390   1.018550
   89        5.958017   1.023908
   90        5.963055   1.025073
   91        5.984819   1.029903
   92        6.027229   1.035439
   93        6.052905   1.032981
   94        6.106501   0.999451
   95        6.261211   0.555588
   96        6.292170   0.425052
   97        6.371374   0.138266
   98        6.386094   0.099442
   99        6.420369   0.030105
  100        6.505649  -0.034668
  101        6.559142  -0.030869
  102        6.597596  -0.022324
  103        6.689768  -0.006186
  104        6.696978  -0.005456
  105        6.706003  -0.004641
  106        6.793202  -0.000753
  107        7.022167  -0.000001
  108        7.168052  -0.000000
  109        7.193789  -0.000000
  110        7.277461  -0.000000
  111        7.681505  -0.000000
  112        7.837435  -0.000000
  113        7.972442  -0.000000
  114        8.056925  -0.000000
  115        8.090622  -0.000000
  116        8.124922  -0.000000
  117        8.143459  -0.000000
  118        8.173838  -0.000000
  119        8.248670  -0.000000
  120        8.312098  -0.000000
 
  0.2000000E+00 -0.1387779E-16  0.1387779E-16  0.1600000E-01
    1      -47.770552   1.000000
    2      -47.747535   1.000000
    3      -47.712470   1.000000
    4      -47.670170   1.000000
    5      -47.641574   1.000000
    6      -47.556871   1.000000
    7      -24.349489   1.000000
    8      -24.286803   1.000000
    9      -24.151936   1.000000
   10      -24.113093   1.000000
   11      -23.918364   1.000000
   12      -23.912885   1.000000
   13      -23.902723   1.000000
   14      -23.863783   1.000000
   15      -23.846498   1.000000
   16      -23.833651   1.000000
   17      -23.812353   1.000000
   18      -23.769635   1.000000
   19      -23.732707   1.000000
   20      -23.709488   1.000000
   21      -23.590292   1.000000
   22      -23.572736   1.000000
   23      -23.434138   1.000000
   24      -23.336531   1.000000
   25       -0.114013   1.000000
   26        1.115736   1.000000
   27        1.459070   1.000000
   28        2.044422   1.000000
   29        2.388959   1.000000
   30        2.485158   1.000000
   31        2.536511   1.000000
   32        2.668819   1.000000
   33        2.695619   1.000000
   34        2.735977   1.000000
   35        2.863335   1.000000
   36        2.935686   1.000000
   37        2.985569   1.000000
   38        3.075804   1.000000
   39        3.128802   1.000000
   40        3.184712   1.000000
   41        3.229993   1.000000
   42        3.259851   1.000000
   43        3.339173   1.000000
   44        3.388458   1.000000
   45        3.513260   1.000000
   46        3.548425   1.000000
   47        3.617288   1.000000
   48        3.716595   1.000000
   49        3.754382   1.000000
   50        3.771860   1.000000
   51        3.885864   1.000000
   52        3.961079   1.000000
   53        3.997717   1.000000
   54        4.080491   1.000000
   55        4.138323   1.000000
   56        4.215569   1.000000
   57        4.286098   1.000000
   58        4.368913   1.000000
   59        4.487334   1.000000
   60        4.540116   1.000000
   61        4.599648   1.000000
   62        4.730281   1.000000
   63        4.742824   1.000000
   64        4.815965   1.000000
   65        4.849054   1.000000
   66        4.879328   1.000000
   67        4.925914   1.000000
   68        4.989420   1.000000
   69        5.004229   1.000000
   70        5.013897   1.000000
   71        5.086775   1.000000
   72        5.114266   1.000000
   73        5.173910   1.000000
   74        5.188552   1.000000
   75        5.271124   1.000000
   76        5.300293   1.000000
   77        5.317318   1.000000
   78        5.347352   1.000000
   79        5.388539   1.000000
   80        5.435073   1.000000
   81        5.441487   1.000000
   82        5.539615   1.000001
   83        5.588340   1.000007
   84        5.649455   1.000046
   85        5.687735   1.000135
   86        5.735403   1.000464
   87        5.763203   1.000899
   88        5.853287   1.005603
   89        5.941150   1.020045
   90        5.963769   1.025238
   91        5.997360   1.032303
   92        6.036195   1.035273
   93        6.063537   1.029877
   94        6.100404   1.005828
   95        6.193209   0.814106
   96        6.210902   0.754184
   97        6.257467   0.571279
   98        6.289954   0.434321
   99        6.354622   0.188870
  100        6.390476   0.088937
  101        6.417556   0.034703
  102        6.469817  -0.022595
  103        6.539110  -0.034145
  104        6.575361  -0.027432
  105        6.598484  -0.022119
  106        6.651203  -0.011414
  107        6.669427  -0.008653
  108        6.872573  -0.000098
  109        6.953002  -0.000009
  110        7.054011  -0.000000
  111        7.354609  -0.000000
  112        7.398742  -0.000000
  113        7.449852  -0.000000
  114        7.501470  -0.000000
  115        7.598557  -0.000000
  116        7.751995  -0.000000
  117        7.804686  -0.000000
  118        7.860381  -0.000000
  119        7.878310  -0.000000
  120        7.916672  -0.000000
 
  0.4000000E+00 -0.2775558E-16  0.2775558E-16  0.1600000E-01
    1      -47.768508   1.000000
    2      -47.739387   1.000000
    3      -47.706415   1.000000
    4      -47.667337   1.000000
    5      -47.639528   1.000000
    6      -47.577235   1.000000
    7      -24.309251   1.000000
    8      -24.171327   1.000000
    9      -24.127875   1.000000
   10      -24.011425   1.000000
   11      -23.924494   1.000000
   12      -23.915681   1.000000
   13      -23.891526   1.000000
   14      -23.865044   1.000000
   15      -23.845401   1.000000
   16      -23.833809   1.000000
   17      -23.816090   1.000000
   18      -23.773603   1.000000
   19      -23.753462   1.000000
   20      -23.713869   1.000000
   21      -23.655246   1.000000
   22      -23.593511   1.000000
   23      -23.562486   1.000000
   24      -23.429153   1.000000
   25        0.701237   1.000000
   26        1.629895   1.000000
   27        1.957445   1.000000
   28        2.173444   1.000000
   29        2.253137   1.000000
   30        2.629505   1.000000
   31        2.682441   1.000000
   32        2.858549   1.000000
   33        2.966161   1.000000
   34        3.059360   1.000000
   35        3.130511   1.000000
   36        3.164664   1.000000
   37        3.255764   1.000000
   38        3.280825   1.000000
   39        3.375999   1.000000
   40        3.432747   1.000000
   41        3.491824   1.000000
   42        3.530283   1.000000
   43        3.549488   1.000000
   44        3.635429   1.000000
   45        3.736497   1.000000
   46        3.748555   1.000000
   47        3.807108   1.000000
   48        3.835668   1.000000
   49        3.942511   1.000000
   50        3.972469   1.000000
   51        4.101744   1.000000
   52        4.153053   1.000000
   53        4.211605   1.000000
   54        4.293601   1.000000
   55        4.363370   1.000000
   56        4.420918   1.000000
   57        4.491921   1.000000
   58        4.535225   1.000000
   59        4.563348   1.000000
   60        4.620206   1.000000
   61        4.654431   1.000000
   62        4.696333   1.000000
   63        4.750308   1.000000
   64        4.781047   1.000000
   65        4.809965   1.000000
   66        4.895673   1.000000
   67        4.917136   1.000000
   68        4.945874   1.000000
   69        4.986066   1.000000
   70        5.040647   1.000000
   71        5.094934   1.000000
   72        5.140764   1.000000
   73        5.177312   1.000000
   74        5.221490   1.000000
   75        5.273035   1.000000
   76        5.325507   1.000000
   77        5.380278   1.000000
   78        5.406287   1.000000
   79        5.420573   1.000000
   80        5.460204   1.000000
   81        5.548491   1.000002
   82        5.599523   1.000010
   83        5.631097   1.000026
   84        5.671686   1.000087
   85        5.718092   1.000301
   86        5.764762   1.000932
   87        5.815722   1.002773
   88        5.851793   1.005458
   89        5.895041   1.011001
   90        5.918591   1.015254
   91        5.947045   1.021379
   92        5.978590   1.028579
   93        6.016777   1.034893
   94        6.040991   1.034901
   95        6.047310   1.034071
   96        6.132006   0.963948
   97        6.169244   0.883872
   98        6.203869   0.778791
   99        6.248685   0.607734
  100        6.256817   0.573998
  101        6.302345   0.382939
  102        6.346003   0.217406
  103        6.358587   0.176296
  104        6.439422   0.003780
  105        6.443931  -0.001277
  106        6.514274  -0.035356
  107        6.567929  -0.029063
  108        6.592537  -0.023492
  109        6.620950  -0.017139
  110        6.686989  -0.006487
  111        6.723418  -0.003348
  112        6.768510  -0.001319
  113        7.045305  -0.000000
  114        7.164438  -0.000000
  115        7.186025  -0.000000
  116        7.306830  -0.000000
  117        7.390306  -0.000000
  118        7.410678  -0.000000
  119        7.523282  -0.000000
  120        7.623012  -0.000000
 
  0.0000000E+00  0.2000000E+00 -0.1387779E-16  0.1600000E-01
    1      -47.772213   1.000000
    2      -47.752491   1.000000
    3      -47.714827   1.000000
    4      -47.671340   1.000000
    5      -47.642271   1.000000
    6      -47.546501   1.000000
    7      -24.435710   1.000000
    8      -24.298213   1.000000
    9      -24.154935   1.000000
   10      -24.117972   1.000000
   11      -23.916997   1.000000
   12      -23.911334   1.000000
   13      -23.907461   1.000000
   14      -23.862264   1.000000
   15      -23.847483   1.000000
   16      -23.829924   1.000000
   17      -23.810271   1.000000
   18      -23.767152   1.000000
   19      -23.723577   1.000000
   20      -23.707235   1.000000
   21      -23.587177   1.000000
   22      -23.571254   1.000000
   23      -23.432692   1.000000
   24      -23.221498   1.000000
   25       -0.289413   1.000000
   26        0.911714   1.000000
   27        1.320526   1.000000
   28        1.537647   1.000000
   29        2.128338   1.000000
   30        2.322885   1.000000
   31        2.398667   1.000000
   32        2.536196   1.000000
   33        2.546441   1.000000
   34        2.632112   1.000000
   35        2.713519   1.000000
   36        2.779565   1.000000
   37        2.826065   1.000000
   38        2.883809   1.000000
   39        2.959758   1.000000
   40        2.990883   1.000000
   41        3.104208   1.000000
   42        3.160701   1.000000
   43        3.279639   1.000000
   44        3.357045   1.000000
   45        3.440853   1.000000
   46        3.512378   1.000000
   47        3.539731   1.000000
   48        3.648278   1.000000
   49        3.672174   1.000000
   50        3.751799   1.000000
   51        3.820904   1.000000
   52        3.895110   1.000000
   53        3.922508   1.000000
   54        3.970854   1.000000
   55        4.045638   1.000000
   56        4.125865   1.000000
   57        4.227384   1.000000
   58        4.390508   1.000000
   59        4.474537   1.000000
   60        4.534702   1.000000
   61        4.576629   1.000000
   62        4.677144   1.000000
   63        4.710596   1.000000
   64        4.759635   1.000000
   65        4.803203   1.000000
   66        4.835803   1.000000
   67        4.888339   1.000000
   68        4.943799   1.000000
   69        4.960215   1.000000
   70        4.992101   1.000000
   71        5.043110   1.000000
   72        5.073678   1.000000
   73        5.109878   1.000000
   74        5.167702   1.000000
   75        5.211024   1.000000
   76        5.234677   1.000000
   77        5.283269   1.000000
   78        5.300643   1.000000
   79        5.412150   1.000000
   80        5.440366   1.000000
   81        5.623770   1.000021
   82        5.643872   1.000039
   83        5.710067   1.000245
   84        5.741421   1.000537
   85        5.774871   1.001171
   86        5.797493   1.001910
   87        5.830548   1.003699
   88        5.881145   1.008904
   89        5.916195   1.014783
   90        5.937356   1.019200
   91        5.970494   1.026777
   92        6.014287   1.034662
   93        6.051267   1.033337
   94        6.084912   1.018764
   95        6.138382   0.952692
   96        6.148177   0.933445
   97        6.212138   0.749760
   98        6.277767   0.485668
   99        6.329023   0.278076
  100        6.553036  -0.032015
  101        6.625711  -0.016152
  102        6.648072  -0.011942
  103        6.694634  -0.005686
  104        6.786876  -0.000872
  105        6.842386  -0.000222
  106        6.868251  -0.000111
  107        6.996679  -0.000002
  108        7.181242  -0.000000
  109        7.226467  -0.000000
  110        7.286967  -0.000000
  111        7.422973  -0.000000
  112        7.468805  -0.000000
  113        7.588018  -0.000000
  114        7.831153  -0.000000
  115        7.903974  -0.000000
  116        8.029337  -0.000000
  117        8.054351  -0.000000
  118        8.115776  -0.000000
  119        8.152644  -0.000000
  120        8.191652  -0.000000
 
  0.2000000E+00  0.2000000E+00 -0.6938894E-17  0.1600000E-01
    1      -47.770688   1.000000
    2      -47.747645   1.000000
    3      -47.712469   1.000000
    4      -47.669979   1.000000
    5      -47.641521   1.000000
    6      -47.556873   1.000000
    7      -24.349610   1.000000
    8      -24.287650   1.000000
    9      -24.155277   1.000000
   10      -24.113566   1.000000
   11      -23.918368   1.000000
   12      -23.912904   1.000000
   13      -23.902680   1.000000
   14      -23.863821   1.000000
   15      -23.846444   1.000000
   16      -23.833605   1.000000
   17      -23.812367   1.000000
   18      -23.769664   1.000000
   19      -23.732663   1.000000
   20      -23.709445   1.000000
   21      -23.588743   1.000000
   22      -23.569153   1.000000
   23      -23.433847   1.000000
   24      -23.336521   1.000000
   25       -0.109414   1.000000
   26        1.077224   1.000000
   27        1.487645   1.000000
   28        2.023485   1.000000
   29        2.348687   1.000000
   30        2.465141   1.000000
   31        2.496441   1.000000
   32        2.597805   1.000000
   33        2.643793   1.000000
   34        2.725445   1.000000
   35        2.785426   1.000000
   36        2.880688   1.000000
   37        2.981402   1.000000
   38        3.030987   1.000000
   39        3.095020   1.000000
   40        3.136711   1.000000
   41        3.203979   1.000000
   42        3.222838   1.000000
   43        3.418230   1.000000
   44        3.458278   1.000000
   45        3.508553   1.000000
   46        3.577351   1.000000
   47        3.644320   1.000000
   48        3.707602   1.000000
   49        3.806498   1.000000
   50        3.859092   1.000000
   51        3.883136   1.000000
   52        3.972994   1.000000
   53        4.059334   1.000000
   54        4.118229   1.000000
   55        4.176548   1.000000
   56        4.234946   1.000000
   57        4.334545   1.000000
   58        4.419101   1.000000
   59        4.496029   1.000000
   60        4.572009   1.000000
   61        4.625422   1.000000
   62        4.643727   1.000000
   63        4.731012   1.000000
   64        4.748491   1.000000
   65        4.783917   1.000000
   66        4.870659   1.000000
   67        4.900487   1.000000
   68        4.936083   1.000000
   69        4.979248   1.000000
   70        5.000073   1.000000
   71        5.034477   1.000000
   72        5.055576   1.000000
   73        5.080479   1.000000
   74        5.135077   1.000000
   75        5.166368   1.000000
   76        5.233093   1.000000
   77        5.305735   1.000000
   78        5.331375   1.000000
   79        5.401489   1.000000
   80        5.474832   1.000000
   81        5.525177   1.000001
   82        5.581760   1.000006
   83        5.649414   1.000046
   84        5.667157   1.000076
   85        5.708624   1.000236
   86        5.777670   1.001246
   87        5.823567   1.003235
   88        5.885295   1.009498
   89        5.905924   1.012860
   90        5.952087   1.022537
   91        5.982386   1.029394
   92        6.012327   1.034457
   93        6.046219   1.034244
   94        6.067685   1.028261
   95        6.162857   0.900086
   96        6.197243   0.801034
   97        6.261980   0.552355
   98        6.316734   0.325163
   99        6.386082   0.099471
  100        6.425964   0.021514
  101        6.471158  -0.023374
  102        6.520944  -0.035448
  103        6.573202  -0.027913
  104        6.618951  -0.017562
  105        6.649164  -0.011756
  106        6.688145  -0.006360
  107        6.747610  -0.002062
  108        6.799130  -0.000654
  109        6.884376  -0.000070
  110        6.938047  -0.000014
  111        7.019866  -0.000001
  112        7.340081  -0.000000
  113        7.690693  -0.000000
  114        7.793001  -0.000000
  115        7.863478  -0.000000
  116        7.895364  -0.000000
  117        8.040642  -0.000000
  118        8.104598  -0.000000
  119        8.145013  -0.000000
  120        8.192223  -0.000000
 
  0.4000000E+00  0.2000000E+00  0.5551115E-16  0.1600000E-01
    1      -47.768765   1.000000
    2      -47.739559   1.000000
    3      -47.706364   1.000000
    4      -47.667026   1.000000
    5      -47.639461   1.000000
    6      -47.577238   1.000000
    7      -24.310466   1.000000
    8      -24.174377   1.000000
    9      -24.131563   1.000000
   10      -24.011404   1.000000
   11      -23.924490   1.000000
   12      -23.915676   1.000000
   13      -23.891463   1.000000
   14      -23.865057   1.000000
   15      -23.845378   1.000000
   16      -23.833741   1.000000
   17      -23.816131   1.000000
   18      -23.773665   1.000000
   19      -23.753374   1.000000
   20      -23.713827   1.000000
   21      -23.655223   1.000000
   22      -23.586926   1.000000
   23      -23.560466   1.000000
   24      -23.428758   1.000000
   25        0.607637   1.000000
   26        1.572644   1.000000
   27        1.924209   1.000000
   28        2.128133   1.000000
   29        2.266706   1.000000
   30        2.400981   1.000000
   31        2.721907   1.000000
   32        2.916056   1.000000
   33        2.991249   1.000000
   34        3.077799   1.000000
   35        3.152555   1.000000
   36        3.184569   1.000000
   37        3.268561   1.000000
   38        3.312948   1.000000
   39        3.330948   1.000000
   40        3.446416   1.000000
   41        3.519009   1.000000
   42        3.540144   1.000000
   43        3.620013   1.000000
   44        3.653013   1.000000
   45        3.699328   1.000000
   46        3.738430   1.000000
   47        3.810879   1.000000
   48        3.886025   1.000000
   49        3.941619   1.000000
   50        4.012789   1.000000
   51        4.059416   1.000000
   52        4.133412   1.000000
   53        4.191075   1.000000
   54        4.220529   1.000000
   55        4.282569   1.000000
   56        4.337320   1.000000
   57        4.389228   1.000000
   58        4.470261   1.000000
   59        4.535413   1.000000
   60        4.654619   1.000000
   61        4.679659   1.000000
   62        4.698864   1.000000
   63        4.761565   1.000000
   64        4.810933   1.000000
   65        4.848353   1.000000
   66        4.900555   1.000000
   67        4.932331   1.000000
   68        4.978582   1.000000
   69        5.014661   1.000000
   70        5.059895   1.000000
   71        5.109326   1.000000
   72        5.123683   1.000000
   73        5.161428   1.000000
   74        5.223616   1.000000
   75        5.254816   1.000000
   76        5.298027   1.000000
   77        5.320016   1.000000
   78        5.417891   1.000000
   79        5.458434   1.000000
   80        5.518654   1.000001
   81        5.538497   1.000001
   82        5.594738   1.000008
   83        5.641849   1.000037
   84        5.662991   1.000068
   85        5.688536   1.000138
   86        5.705483   1.000217
   87        5.787023   1.001529
   88        5.795475   1.001831
   89        5.846856   1.004998
   90        5.885376   1.009510
   91        5.911411   1.013867
   92        5.946198   1.021186
   93        5.968438   1.026310
   94        6.012352   1.034460
   95        6.034524   1.035354
   96        6.065243   1.029241
   97        6.105871   1.000145
   98        6.135783   0.957400
   99        6.154164   0.920497
  100        6.191632   0.819116
  101        6.233943   0.667283
  102        6.289860   0.434713
  103        6.327599   0.283408
  104        6.369677   0.143088
  105        6.412341   0.043734
  106        6.436260   0.007585
  107        6.558045  -0.031083
  108        6.661341  -0.009813
  109        6.706933  -0.004563
  110        6.789013  -0.000830
  111        6.859660  -0.000140
  112        7.192581  -0.000000
  113        7.309294  -0.000000
  114        7.370236  -0.000000
  115        7.446759  -0.000000
  116        7.559050  -0.000000
  117        7.621523  -0.000000
  118        7.681002  -0.000000
  119        7.745886  -0.000000
  120        7.780938  -0.000000
 
 -0.4000000E+00  0.2000000E+00  0.1110223E-15  0.1600000E-01
    1      -47.768503   1.000000
    2      -47.739386   1.000000
    3      -47.706415   1.000000
    4      -47.667342   1.000000
    5      -47.639529   1.000000
    6      -47.577235   1.000000
    7      -24.309235   1.000000
    8      -24.171311   1.000000
    9      -24.127852   1.000000
   10      -24.011431   1.000000
   11      -23.924613   1.000000
   12      -23.915663   1.000000
   13      -23.891552   1.000000
   14      -23.865065   1.000000
   15      -23.845299   1.000000
   16      -23.833794   1.000000
   17      -23.816059   1.000000
   18      -23.773597   1.000000
   19      -23.753457   1.000000
   20      -23.713872   1.000000
   21      -23.655239   1.000000
   22      -23.593551   1.000000
   23      -23.562525   1.000000
   24      -23.429166   1.000000
   25        0.960794   1.000000
   26        1.610221   1.000000
   27        1.734337   1.000000
   28        2.022080   1.000000
   29        2.303316   1.000000
   30        2.530032   1.000000
   31        2.617922   1.000000
   32        2.747050   1.000000
   33        2.976435   1.000000
   34        3.067559   1.000000
   35        3.151383   1.000000
   36        3.201017   1.000000
   37        3.241316   1.000000
   38        3.320409   1.000000
   39        3.355691   1.000000
   40        3.420510   1.000000
   41        3.472213   1.000000
   42        3.513865   1.000000
   43        3.587944   1.000000
   44        3.647205   1.000000
   45        3.713311   1.000000
   46        3.802473   1.000000
   47        3.846478   1.000000
   48        3.924954   1.000000
   49        4.001353   1.000000
   50        4.057223   1.000000
   51        4.080097   1.000000
   52        4.142814   1.000000
   53        4.193356   1.000000
   54        4.296293   1.000000
   55        4.379576   1.000000
   56        4.479813   1.000000
   57        4.534254   1.000000
   58        4.568400   1.000000
   59        4.578137   1.000000
   60        4.610750   1.000000
   61        4.630074   1.000000
   62        4.699563   1.000000
   63        4.712357   1.000000
   64        4.784848   1.000000
   65        4.813390   1.000000
   66        4.871492   1.000000
   67        4.927616   1.000000
   68        4.972702   1.000000
   69        4.992047   1.000000
   70        5.016376   1.000000
   71        5.025909   1.000000
   72        5.130796   1.000000
   73        5.161791   1.000000
   74        5.196818   1.000000
   75        5.264810   1.000000
   76        5.282315   1.000000
   77        5.327688   1.000000
   78        5.353291   1.000000
   79        5.450321   1.000000
   80        5.500621   1.000000
   81        5.512480   1.000000
   82        5.575432   1.000005
   83        5.592695   1.000008
   84        5.636014   1.000031
   85        5.746243   1.000604
   86        5.775758   1.001194
   87        5.821767   1.003123
   88        5.844412   1.004783
   89        5.893417   1.010740
   90        5.915813   1.014709
   91        5.974289   1.027631
   92        5.983869   1.029706
   93        6.019806   1.035124
   94        6.055070   1.032463
   95        6.089169   1.015654
   96        6.139582   0.950463
   97        6.169477   0.883263
   98        6.206828   0.768560
   99        6.235165   0.662444
  100        6.275263   0.496260
  101        6.310107   0.351465
  102        6.343504   0.225978
  103        6.387303   0.096496
  104        6.427500   0.019284
  105        6.439442   0.003757
  106        6.477921  -0.026869
  107        6.518302  -0.035454
  108        6.540035  -0.034029
  109        6.632537  -0.014788
  110        6.689453  -0.006219
  111        6.820899  -0.000385
  112        6.846458  -0.000200
  113        6.877137  -0.000086
  114        6.989352  -0.000003
  115        7.262625  -0.000000
  116        7.423441  -0.000000
  117        7.625151  -0.000000
  118        7.638268  -0.000000
  119        7.690442  -0.000000
  120        7.727742  -0.000000
 
 -0.2000000E+00  0.2000000E+00 -0.4163336E-16  0.1600000E-01
    1      -47.770324   1.000000
    2      -47.747351   1.000000
    3      -47.712471   1.000000
    4      -47.670495   1.000000
    5      -47.641662   1.000000
    6      -47.556868   1.000000
    7      -24.349309   1.000000
    8      -24.285454   1.000000
    9      -24.146444   1.000000
   10      -24.112055   1.000000
   11      -23.918579   1.000000
   12      -23.912911   1.000000
   13      -23.902829   1.000000
   14      -23.863822   1.000000
   15      -23.846457   1.000000
   16      -23.833571   1.000000
   17      -23.812250   1.000000
   18      -23.769550   1.000000
   19      -23.732765   1.000000
   20      -23.709561   1.000000
   21      -23.594510   1.000000
   22      -23.577264   1.000000
   23      -23.434612   1.000000
   24      -23.336539   1.000000
   25        0.118620   1.000000
   26        1.219413   1.000000
   27        1.465750   1.000000
   28        1.660821   1.000000
   29        2.213813   1.000000
   30        2.544321   1.000000
   31        2.634486   1.000000
   32        2.724525   1.000000
   33        2.754973   1.000000
   34        2.796893   1.000000
   35        2.931424   1.000000
   36        2.964793   1.000000
   37        2.976425   1.000000
   38        3.051669   1.000000
   39        3.073962   1.000000
   40        3.126431   1.000000
   41        3.178266   1.000000
   42        3.242827   1.000000
   43        3.322808   1.000000
   44        3.394298   1.000000
   45        3.466417   1.000000
   46        3.533261   1.000000
   47        3.608132   1.000000