 vasp.5.4.4.18Apr17-6-g9f103f2a35 (build Aug 09 2018 16:20:53) complex          
  
 executed on             LinuxIFC date 2020.04.28  21:30:14
 running on   32 total cores
 distrk:  each k-point on   32 cores,    1 groups
 distr:  one band on NCORES_PER_BAND=   4 cores,    8 groups


--------------------------------------------------------------------------------------------------------


 INCAR:
 POTCAR:    PAW_PBE Nb_sv 25May2007               
 POTCAR:    PAW_PBE Mo 08Apr2002                  
 POTCAR:    PAW_PBE Ta 17Jan2003                  
 POTCAR:    PAW_PBE Ti 08Apr2002                  
 POTCAR:    PAW_PBE V 08Apr2002                   
 POTCAR:    PAW_PBE Nb_sv 25May2007               
   VRHFIN =Nb: 4p5s4d                                                           
   LEXCH  = PE                                                                  
   EATOM  =  1555.1913 eV,  114.3033 Ry                                         
                                                                                
   TITEL  = PAW_PBE Nb_sv 25May2007                                             
   LULTRA =        F    use ultrasoft PP ?                                      
   IUNSCR =        1    unscreen: 0-lin 1-nonlin 2-no                           
   RPACOR =    1.800    partial core radius                                     
   POMASS =   92.910; ZVAL   =   13.000    mass and valenz                      
   RCORE  =    2.400    outmost cutoff radius                                   
   RWIGS  =    2.400; RWIGS  =    1.270    wigner-seitz radius (au A)           
   ENMAX  =  293.235; ENMIN  =  219.927 eV                                      
   ICORE  =        3    local potential                                         
   LCOR   =        T    correct aug charges                                     
   LPAW   =        T    paw PP                                                  
   EAUG   =  455.659                                                            
   DEXC   =    0.000                                                            
   RMAX   =    2.456    core radius for proj-oper                               
   RAUG   =    1.300    factor for augmentation sphere                          
   RDEP   =    2.451    radius for radial grids                                 
   RDEPT  =    1.956    core radius for aug-charge                              
                                                                                
   Atomic configuration                                                         
   11 entries                                                                   
     n  l   j            E        occ.                                          
     1  0  0.50    -18805.2457   2.0000                                         
     2  0  0.50     -2630.2869   2.0000                                         
     2  1  1.50     -2348.4046   6.0000                                         
     3  0  0.50      -438.8757   2.0000                                         
     3  1  1.50      -346.7588   6.0000                                         
     3  2  2.50      -196.2560  10.0000                                         
     4  0  0.50       -58.3859   2.0000                                         
     5  0  0.50        -3.9816   1.0000                                         
     4  1  1.50       -34.5141   6.0000                                         
     4  2  2.50        -3.0408   4.0000                                         
     4  3  2.50        -1.3606   0.0000                                         
   Description                                                                  
     l       E           TYP  RCUT    TYP  RCUT                                 
     0    -58.3859094     23  2.200                                             
     0     -3.9816262     23  2.200                                             
     1    -34.5140738     23  2.200                                             
     1     13.6058260     23  2.200                                             
     2     -3.0408010     23  2.200                                             
     2     -0.1283038     23  2.200                                             
     3     -1.3605826     23  2.400                                             
  local pseudopotential read in
  partial core-charges read in
  partial kinetic energy density read in
  atomic valenz-charges read in
  non local Contribution for L=           0  read in
    real space projection operators read in
  non local Contribution for L=           0  read in
    real space projection operators read in
  non local Contribution for L=           1  read in
    real space projection operators read in
  non local Contribution for L=           1  read in
    real space projection operators read in
  non local Contribution for L=           2  read in
    real space projection operators read in
  non local Contribution for L=           2  read in
    real space projection operators read in
    PAW grid and wavefunctions read in
 
   number of l-projection  operators is LMAX  =           6
   number of lm-projection operators is LMMAX =          18
 
 POTCAR:    PAW_PBE Mo 08Apr2002                  
   VRHFIN =Mo: 4p5s4d                                                           
   LEXCH  = PE                                                                  
   EATOM  =   217.5176 eV,   15.9871 Ry                                         
                                                                                
   TITEL  = PAW_PBE Mo 08Apr2002                                                
   LULTRA =        F    use ultrasoft PP ?                                      
   IUNSCR =        1    unscreen: 0-lin 1-nonlin 2-no                           
   RPACOR =    2.200    partial core radius                                     
   POMASS =   95.940; ZVAL   =    6.000    mass and valenz                      
   RCORE  =    2.750    outmost cutoff radius                                   
   RWIGS  =    2.750; RWIGS  =    1.455    wigner-seitz radius (au A)           
   ENMAX  =  224.584; ENMIN  =  168.438 eV                                      
   RCLOC  =    2.111    cutoff for local pot                                    
   LCOR   =        T    correct aug charges                                     
   LPAW   =        T    paw PP                                                  
   EAUG   =  345.278                                                            
   DEXC   =    0.000                                                            
   RMAX   =    2.821    core radius for proj-oper                               
   RAUG   =    1.300    factor for augmentation sphere                          
   RDEP   =    2.815    radius for radial grids                                 
   RDEPT  =    2.211    core radius for aug-charge                              
                                                                                
   Atomic configuration                                                         
   12 entries                                                                   
     n  l   j            E        occ.                                          
     1  0  0.50    -19819.0341   2.0000                                         
     2  0  0.50     -2799.0127   2.0000                                         
     2  1  1.50     -2502.0276   6.0000                                         
     3  0  0.50      -476.4448   2.0000                                         
     3  1  1.50      -379.1496   6.0000                                         
     3  2  2.50      -220.9367  10.0000                                         
     4  0  0.50       -64.3378   2.0000                                         
     4  1  1.50       -38.4773   6.0000                                         
     4  2  2.50        -3.7535   5.0000                                         
     5  0  0.50        -4.0862   1.0000                                         
     5  1  0.50        -2.7701   0.0000                                         
     4  3  2.50        -1.3606   0.0000                                         
   Description                                                                  
     l       E           TYP  RCUT    TYP  RCUT                                 
     2     -3.7534765     23  2.500                                             
     2     -5.1140591     23  2.500                                             
     0     -4.0861560     23  2.600                                             
     0     13.6058260     23  2.600                                             
     1      5.4423304     23  2.750                                             
     1     27.2116520     23  2.750                                             
  local pseudopotential read in
  partial core-charges read in
  partial kinetic energy density read in
  atomic valenz-charges read in
  non local Contribution for L=           2  read in
    real space projection operators read in
  non local Contribution for L=           2  read in
    real space projection operators read in
  non local Contribution for L=           0  read in
    real space projection operators read in
  non local Contribution for L=           0  read in
    real space projection operators read in
  non local Contribution for L=           1  read in
    real space projection operators read in
  non local Contribution for L=           1  read in
    real space projection operators read in
    PAW grid and wavefunctions read in
 
   number of l-projection  operators is LMAX  =           6
   number of lm-projection operators is LMMAX =          18
 
 POTCAR:    PAW_PBE Ta 17Jan2003                  
   VRHFIN =Ta:  6s5d                                                            
   LEXCH  = PE                                                                  
   EATOM  =   130.6506 eV,    9.6025 Ry                                         
                                                                                
   TITEL  = PAW_PBE Ta 17Jan2003                                                
   LULTRA =        F    use ultrasoft PP ?                                      
   IUNSCR =        1    unscreen: 0-lin 1-nonlin 2-no                           
   RPACOR =    2.330    partial core radius                                     
   POMASS =  180.948; ZVAL   =    5.000    mass and valenz                      
   RCORE  =    2.900    outmost cutoff radius                                   
   RWIGS  =    2.840; RWIGS  =    1.503    wigner-seitz radius (au A)           
   ENMAX  =  223.667; ENMIN  =  167.750 eV                                      
   RCLOC  =    2.205    cutoff for local pot                                    
   LCOR   =        T    correct aug charges                                     
   LPAW   =        T    paw PP                                                  
   EAUG   =  332.075                                                            
   DEXC   =    0.000                                                            
   RMAX   =    2.970    core radius for proj-oper                               
   RAUG   =    1.300    factor for augmentation sphere                          
   RDEP   =    3.060    radius for radial grids                                 
   RDEPT  =    2.354    core radius for aug-charge                              
                                                                                
   Atomic configuration                                                         
   16 entries                                                                   
     n  l   j            E        occ.                                          
     1  0  0.50    -67341.2807   2.0000                                         
     2  0  0.50    -11566.9376   2.0000                                         
     2  1  1.50    -10134.1182   6.0000                                         
     3  0  0.50     -2648.5620   2.0000                                         
     3  1  1.50     -2222.6012   6.0000                                         
     3  2  2.50     -1726.3120  10.0000                                         
     4  0  0.50      -538.6961   2.0000                                         
     4  1  1.50      -399.0129   6.0000                                         
     4  2  2.50      -220.3959  10.0000                                         
     4  3  3.50       -23.0374  14.0000                                         
     5  0  0.50       -71.2901   2.0000                                         
     5  1  1.50       -37.8225   6.0000                                         
     5  2  2.50        -2.6455   4.0000                                         
     6  0  0.50        -4.9623   1.0000                                         
     6  1  1.50        -1.3606   0.0000                                         
     5  3  2.50        -1.3606   0.0000                                         
   Description                                                                  
     l       E           TYP  RCUT    TYP  RCUT                                 
     2     -2.6455043     23  2.500                                             
     2     -0.6258895     23  2.500                                             
     0     -4.9622780     23  2.500                                             
     0      4.7531321     23  2.500                                             
     1     -1.3605826     23  2.900                                             
     1     27.2116520     23  2.900                                             
  local pseudopotential read in
  partial core-charges read in
  partial kinetic energy density read in
  atomic valenz-charges read in
  non local Contribution for L=           2  read in
    real space projection operators read in
  non local Contribution for L=           2  read in
    real space projection operators read in
  non local Contribution for L=           0  read in
    real space projection operators read in
  non local Contribution for L=           0  read in
    real space projection operators read in
  non local Contribution for L=           1  read in
    real space projection operators read in
  non local Contribution for L=           1  read in
    real space projection operators read in
    PAW grid and wavefunctions read in
 
   number of l-projection  operators is LMAX  =           6
   number of lm-projection operators is LMMAX =          18
 
 POTCAR:    PAW_PBE Ti 08Apr2002                  
   VRHFIN =Ti: d3 s1                                                            
   LEXCH  = PE                                                                  
   EATOM  =    94.7928 eV,    6.9671 Ry                                         
                                                                                
   TITEL  = PAW_PBE Ti 08Apr2002                                                
   LULTRA =        F    use ultrasoft PP ?                                      
   IUNSCR =        1    unscreen: 0-lin 1-nonlin 2-no                           
   RPACOR =    2.200    partial core radius                                     
   POMASS =   47.880; ZVAL   =    4.000    mass and valenz                      
   RCORE  =    2.800    outmost cutoff radius                                   
   RWIGS  =    2.500; RWIGS  =    1.323    wigner-seitz radius (au A)           
   ENMAX  =  178.330; ENMIN  =  133.747 eV                                      
   RCLOC  =    2.215    cutoff for local pot                                    
   LCOR   =        T    correct aug charges                                     
   LPAW   =        T    paw PP                                                  
   EAUG   =  328.883                                                            
   DEXC   =    0.000                                                            
   RMAX   =    2.868    core radius for proj-oper                               
   RAUG   =    1.300    factor for augmentation sphere                          
   RDEP   =    2.885    radius for radial grids                                 
   RDEPT  =    2.320    core radius for aug-charge                              
                                                                                
   Atomic configuration                                                         
    9 entries                                                                   
     n  l   j            E        occ.                                          
     1  0  0.50     -4865.3608   2.0000                                         
     2  0  0.50      -533.1367   2.0000                                         
     2  1  1.50      -440.5031   6.0000                                         
     3  0  0.50       -59.3186   2.0000                                         
     3  1  1.50       -35.7012   6.0000                                         
     3  2  2.50        -1.9157   3.0000                                         
     4  0  0.50        -3.7291   1.0000                                         
     4  1  1.50        -4.0817   0.0000                                         
     4  3  2.50        -1.3606   0.0000                                         
   Description                                                                  
     l       E           TYP  RCUT    TYP  RCUT                                 
     2     -1.9156924     23  2.800                                             
     2     -0.4062961     23  2.800                                             
     0     -3.7290832     23  2.800                                             
     0     20.4087390     23  2.800                                             
     1     -5.4423304     23  2.800                                             
  local pseudopotential read in
  partial core-charges read in
  partial kinetic energy density read in
  atomic valenz-charges read in
  non local Contribution for L=           2  read in
    real space projection operators read in
  non local Contribution for L=           2  read in
    real space projection operators read in
  non local Contribution for L=           0  read in
    real space projection operators read in
  non local Contribution for L=           0  read in
    real space projection operators read in
  non local Contribution for L=           1  read in
    real space projection operators read in
    PAW grid and wavefunctions read in
 
   number of l-projection  operators is LMAX  =           5
   number of lm-projection operators is LMMAX =          15
 
 POTCAR:    PAW_PBE V 08Apr2002                   
   VRHFIN =V: p6 d4 s1                                                          
   LEXCH  = PE                                                                  
   EATOM  =   170.8679 eV,   12.5584 Ry                                         
                                                                                
   TITEL  = PAW_PBE V 08Apr2002                                                 
   LULTRA =        F    use ultrasoft PP ?                                      
   IUNSCR =        1    unscreen: 0-lin 1-nonlin 2-no                           
   RPACOR =    2.000    partial core radius                                     
   POMASS =   50.941; ZVAL   =    5.000    mass and valenz                      
   RCORE  =    2.700    outmost cutoff radius                                   
   RWIGS  =    2.500; RWIGS  =    1.323    wigner-seitz radius (au A)           
   ENMAX  =  192.543; ENMIN  =  144.408 eV                                      
   RCLOC  =    1.779    cutoff for local pot                                    
   LCOR   =        T    correct aug charges                                     
   LPAW   =        T    paw PP                                                  
   EAUG   =  358.662                                                            
   DEXC   =    0.000                                                            
   RMAX   =    2.768    core radius for proj-oper                               
   RAUG   =    1.300    factor for augmentation sphere                          
   RDEP   =    2.762    radius for radial grids                                 
   RDEPT  =    2.240    core radius for aug-charge                              
                                                                                
   Atomic configuration                                                         
    9 entries                                                                   
     n  l   j            E        occ.                                          
     1  0  0.50     -5360.7193   2.0000                                         
     2  0  0.50      -598.4546   2.0000                                         
     2  1  1.50      -499.0155   6.0000                                         
     3  0  0.50       -66.5711   2.0000                                         
     3  1  1.50       -40.5282   6.0000                                         
     3  2  2.50        -2.4291   4.0000                                         
     4  0  0.50        -3.8743   1.0000                                         
     4  1  0.50        -2.7212   0.0000                                         
     4  3  2.50        -1.3606   0.0000                                         
   Description                                                                  
     l       E           TYP  RCUT    TYP  RCUT                                 
     2     -2.4290901     23  2.700                                             
     2     -3.7896727     23  2.700                                             
     0     -3.8742752     23  2.700                                             
     0     27.2116520     23  2.700                                             
     1     -2.7211652     23  2.700                                             
     1     27.2116520     23  2.700                                             
  local pseudopotential read in
  partial core-charges read in
  partial kinetic energy density read in
  atomic valenz-charges read in
  non local Contribution for L=           2  read in
    real space projection operators read in
  non local Contribution for L=           2  read in
    real space projection operators read in
  non local Contribution for L=           0  read in
    real space projection operators read in
  non local Contribution for L=           0  read in
    real space projection operators read in
  non local Contribution for L=           1  read in
    real space projection operators read in
  non local Contribution for L=           1  read in
    real space projection operators read in
    PAW grid and wavefunctions read in
 
   number of l-projection  operators is LMAX  =           6
   number of lm-projection operators is LMMAX =          18
 
 Optimization of the real space projectors (new method)

 maximal supplied QI-value         = 15.68
 optimisation between [QCUT,QGAM] = [ 12.55, 25.10] = [ 44.09,176.36] Ry 
 Optimized for a Real-space Cutoff    1.56 Angstroem

   l    n(q)    QCUT    max X(q) W(low)/X(q) W(high)/X(q)  e(spline) 
   0     12    12.548    10.201    0.21E-04    0.36E-05    0.83E-07
   0     12    12.548     8.174    0.31E-04    0.62E-05    0.15E-06
   1     11    12.548     3.488    0.79E-05    0.23E-04    0.21E-06
   1     11    12.548     4.917    0.56E-04    0.13E-03    0.11E-05
   2     11    12.548   153.744    0.25E-03    0.10E-03    0.15E-05
   2     11    12.548   126.342    0.25E-03    0.10E-03    0.15E-05
 Optimization of the real space projectors (new method)

 maximal supplied QI-value         = 13.61
 optimisation between [QCUT,QGAM] = [ 12.52, 25.04] = [ 43.88,175.51] Ry 
 Optimized for a Real-space Cutoff    1.56 Angstroem

   l    n(q)    QCUT    max X(q) W(low)/X(q) W(high)/X(q)  e(spline) 
   2     11    12.518    80.908    0.42E-03    0.30E-03    0.14E-05
   2     11    12.518    79.000    0.42E-03    0.30E-03    0.14E-05
   0     12    12.518    52.066    0.58E-04    0.50E-04    0.55E-06
   0     12    12.518    24.514    0.48E-04    0.41E-04    0.46E-06
   1     11    12.518    16.033    0.62E-04    0.13E-03    0.37E-06
   1     11    12.518    11.179    0.47E-04    0.10E-03    0.31E-06
 Optimization of the real space projectors (new method)

 maximal supplied QI-value         = 12.85
 optimisation between [QCUT,QGAM] = [ 12.46, 25.06] = [ 43.51,175.83] Ry 
 Optimized for a Real-space Cutoff    1.56 Angstroem

   l    n(q)    QCUT    max X(q) W(low)/X(q) W(high)/X(q)  e(spline) 
   2     11    12.465    62.315    0.36E-03    0.20E-03    0.15E-05
   2     11    12.465    52.185    0.36E-03    0.20E-03    0.15E-05
   0     12    12.465   103.837    0.22E-04    0.37E-05    0.56E-06
   0     12    12.465    59.728    0.20E-04    0.34E-05    0.51E-06
   1     11    12.465    13.958    0.44E-03    0.81E-03    0.81E-05
   1     11    12.465     8.441    0.31E-03    0.56E-03    0.56E-05
 Optimization of the real space projectors (new method)

 maximal supplied QI-value         = 13.42
 optimisation between [QCUT,QGAM] = [ 12.48, 25.09] = [ 43.60,176.28] Ry 
 Optimized for a Real-space Cutoff    1.56 Angstroem

   l    n(q)    QCUT    max X(q) W(low)/X(q) W(high)/X(q)  e(spline) 
   2     11    12.478    49.363    0.45E-03    0.34E-03    0.89E-06
   2     11    12.478    47.669    0.44E-03    0.33E-03    0.87E-06
   0     12    12.478    26.374    0.17E-03    0.37E-04    0.21E-05
   0     12    12.478    11.549    0.13E-03    0.31E-04    0.17E-05
   1     11    12.478     9.492    0.91E-05    0.64E-04    0.34E-06
 Optimization of the real space projectors (new method)

 maximal supplied QI-value         = 13.98
 optimisation between [QCUT,QGAM] = [ 12.45, 25.03] = [ 43.38,175.46] Ry 
 Optimized for a Real-space Cutoff    1.56 Angstroem

   l    n(q)    QCUT    max X(q) W(low)/X(q) W(high)/X(q)  e(spline) 
   2     11    12.446    96.114    0.19E-03    0.47E-04    0.85E-06
   2     11    12.446    88.986    0.19E-03    0.46E-04    0.86E-06
   0     12    12.446    20.919    0.37E-04    0.64E-04    0.43E-06
   0     12    12.446     9.593    0.25E-04    0.48E-04    0.33E-06
   1     11    12.446    11.615    0.75E-04    0.30E-04    0.59E-06
   1     11    12.446     7.031    0.53E-04    0.23E-04    0.40E-06

 ----------------------------------------------------------------------------- 
|                                                                             |
|  ADVICE TO THIS USER RUNNING 'VASP/VAMP'   (HEAR YOUR MASTER'S VOICE ...):  |
|                                                                             |
|      You enforced a specific xc-type in the INCAR file,                     |
|      a different type was found on the POTCAR file                          |
|          I HOPE YOU KNOW, WHAT YOU ARE  DOING                               |
|                                                                             |
 ----------------------------------------------------------------------------- 

  PAW_PBE Nb_sv 25May2007               :
 energy of atom  1       EATOM=-1555.1913
 kinetic energy error for atom=    0.0037 (will be added to EATOM!!)
  PAW_PBE Mo 08Apr2002                  :
 energy of atom  2       EATOM= -217.5176
 kinetic energy error for atom=    0.0005 (will be added to EATOM!!)
  PAW_PBE Ta 17Jan2003                  :
 energy of atom  3       EATOM= -130.6506
 kinetic energy error for atom=    0.0004 (will be added to EATOM!!)
  PAW_PBE Ti 08Apr2002                  :
 energy of atom  4       EATOM=  -94.7928
 kinetic energy error for atom=    0.0001 (will be added to EATOM!!)
  PAW_PBE V 08Apr2002                   :
 energy of atom  5       EATOM= -170.8679
 kinetic energy error for atom=    0.0002 (will be added to EATOM!!)
 
 
 POSCAR: Nb - Mo - Ta - Ti - V SQS-30 BCC        
  positions in direct lattice
  No initial velocities read in
 exchange correlation table for  LEXCH =       14
   RHO(1)=    0.500       N(1)  =     2000
   RHO(2)=  100.500       N(2)  =     4000

 VTST: version 3.2, (02/03/18)

 CHAIN: initializing optimizer
 
 OPT: Using VASP Conjugate-Gradient optimizer
 CHAIN: Read ICHAIN            0
 
 POSCAR: Nb - Mo - Ta - Ti - V SQS-30 BCC        
  positions in direct lattice
  No initial velocities read in
 


--------------------------------------------------------------------------------------------------------


 ion  position               nearest neighbor table
   1  0.967  0.933  0.400-  18 2.78   7 2.78  24 2.78  20 2.78  20 2.78  19 2.78   6 2.78   2 2.78
                            16 3.21   8 3.21  15 3.21  11 3.21  12 3.21
   2  0.633  0.267  0.400-  18 2.78  26 2.78   9 2.78  12 2.78  12 2.78  28 2.78  15 2.78   1 2.78
                             8 3.21
   3  0.500  0.000  0.000-  13 2.78  21 2.78  17 2.78  15 2.78   4 2.78   4 2.78  27 2.78  16 2.78
                            10 3.21  14 3.21   7 3.21
   4  0.000  0.000  0.000-  10 2.78  29 2.78  24 2.78  14 2.78   3 2.78   3 2.78   7 2.78   5 2.78
                            15 3.21  13 3.21  17 3.21  16 3.21
   5  0.100  0.200  0.800-  25 2.78  17 2.78   6 2.78  21 2.78  23 2.78  27 2.78  27 2.78   4 2.78
                            14 3.21  10 3.21
   6  0.033  0.067  0.600-  26 2.78   5 2.78  14 2.78  28 2.78  28 2.78  12 2.78   1 2.78  11 2.78
                            17 3.21
   7  0.900  0.800  0.200-  30 2.78  15 2.78   1 2.78  13 2.78   8 2.78  16 2.78  16 2.78   4 2.78
                             9 3.21  20 3.21  24 3.21  29 3.21  18 3.21   3 3.21
   8  0.800  0.600  0.400-  20 2.78  12 2.78   9 2.78  19 2.78   7 2.78  18 2.78  18 2.78  26 2.78
                            30 3.21   1 3.21  11 3.21   2 3.21  16 3.21  23 3.21
   9  0.733  0.467  0.200-  16 2.78   8 2.78   2 2.78  30 2.78  30 2.78  13 2.78  10 2.78  24 2.78
                             7 3.21  18 3.21  12 3.21  29 3.21  15 3.21  21 3.21
  10  0.667  0.333  0.000-   4 2.78  27 2.78  21 2.78  21 2.78  25 2.78  15 2.78   9 2.78  29 2.78
                             3 3.21   5 3.21  22 3.21  24 3.21  13 3.21  30 3.21
  11  0.367  0.733  0.600-  26 2.78  18 2.78  22 2.78  19 2.78  19 2.78  20 2.78  17 2.78   6 2.78
                             8 3.21  23 3.21  25 3.21   1 3.21  28 3.21  14 3.21
  12  0.133  0.267  0.400-   8 2.78  23 2.78  30 2.78   2 2.78   2 2.78   6 2.78  24 2.78  20 2.78
                            18 3.21  26 3.21   9 3.21  28 3.21  15 3.21   1 3.21
  13  0.833  0.667  0.000-   3 2.78   7 2.78  29 2.78  29 2.78   9 2.78  14 2.78  25 2.78  21 2.78
                             4 3.21  16 3.21  30 3.21  17 3.21  10 3.21  22 3.21
  14  0.933  0.867  0.800-  27 2.78   4 2.78   6 2.78  17 2.78  13 2.78  17 2.78  19 2.78  22 2.78
                             3 3.21   5 3.21  28 3.21  29 3.21  11 3.21  25 3.21
  15  0.567  0.133  0.200-   7 2.78   3 2.78  24 2.78  20 2.78  10 2.78  24 2.78   2 2.78  30 2.78
                             4 3.21  16 3.21   1 3.21  21 3.21  12 3.21   9 3.21
  16  0.400  0.800  0.200-   9 2.78  24 2.78  20 2.78  29 2.78  18 2.78   7 2.78   7 2.78   3 2.78
                            30 3.21   1 3.21  15 3.21  13 3.21   8 3.21   4 3.21
  17  0.433  0.867  0.800-   5 2.78   3 2.78  28 2.78  14 2.78  29 2.78  14 2.78  11 2.78  25 2.78
                            27 3.21   4 3.21   6 3.21  13 3.21  19 3.21  22 3.21
  18  0.300  0.600  0.400-   1 2.78   2 2.78  30 2.78  11 2.78  16 2.78   8 2.78   8 2.78  23 2.78
                            20 3.21   9 3.21  12 3.21  19 3.21   7 3.21  26 3.21
  19  0.867  0.733  0.600-  23 2.78   8 2.78  25 2.78  11 2.78  11 2.78   1 2.78  14 2.78  28 2.78
                            18 3.21  17 3.21
  20  0.467  0.933  0.400-   8 2.78  16 2.78  15 2.78   1 2.78   1 2.78  11 2.78  28 2.78  12 2.78
                             7 3.21  18 3.21
  21  0.167  0.333  0.000-   3 2.78   5 2.78  10 2.78  10 2.78  22 2.78  24 2.78  30 2.78  13 2.78
                            15 3.21   9 3.21
  22  0.267  0.533  0.800-  27 2.78  23 2.78  11 2.78  25 2.78  25 2.78  21 2.78  29 2.78  14 2.78
                            10 3.21  13 3.21  17 3.21
  23  0.200  0.400  0.600-  28 2.78  19 2.78  22 2.78  12 2.78   5 2.78  26 2.78  26 2.78  18 2.78
                            11 3.21   8 3.21
  24  0.067  0.133  0.200-  16 2.78   4 2.78  15 2.78   1 2.78  15 2.78  21 2.78  12 2.78   9 2.78
                             7 3.21  10 3.21
  25  0.767  0.533  0.800-   5 2.78  26 2.78  19 2.78  22 2.78  22 2.78  10 2.78  13 2.78  17 2.78
                            11 3.21  14 3.21
  26  0.700  0.400  0.600-   6 2.78  11 2.78  25 2.78   2 2.78  27 2.78  23 2.78  23 2.78   8 2.78
                            12 3.21  18 3.21
  27  0.600  0.200  0.800-  22 2.78  14 2.78  28 2.78  10 2.78  26 2.78   5 2.78   5 2.78   3 2.78
                            17 3.21
  28  0.533  0.067  0.600-  23 2.78  27 2.78  17 2.78   6 2.78   6 2.78   2 2.78  20 2.78  19 2.78
                            14 3.21  12 3.21  11 3.21
  29  0.333  0.667  0.000-   4 2.78  16 2.78  13 2.78  13 2.78  30 2.78  17 2.78  22 2.78  10 2.78
                             7 3.21   9 3.21  14 3.21
  30  0.233  0.467  0.200-   7 2.78  18 2.78  12 2.78   9 2.78   9 2.78  29 2.78  21 2.78  15 2.78
                            16 3.21   8 3.21  13 3.21  10 3.21
 
  LATTYP: Found a triclinic cell.
 ALAT       =     5.5598830923
 B/A-ratio  =     2.8722813233
 C/A-ratio  =     2.0615528128
 COS(alpha) =     0.0140733444
 COS(beta)  =     0.0808452083
 COS(gamma) =     0.8703882798
  
  Lattice vectors:
  
 A1 = (   3.2100000000,   3.2100000000,   3.2100000000)
 A2 = (  11.2350000000,  11.2350000000,   1.6050000000)
 A3 = (  -8.0250000000,   8.0250000000,   1.6050000000)


Analysis of symmetry for initial positions (statically):
=====================================================================
 Subroutine PRICEL returns:
 Original cell was already a primitive cell.
 

 Routine SETGRP: Setting up the symmetry group for a 
 triclinic supercell.


 Subroutine GETGRP returns: Found  1 space group operations
 (whereof  1 operations were pure point group operations)
 out of a pool of  2 trial point group operations.


The static configuration has the point symmetry C_1 .


Analysis of symmetry for dynamics (positions and initial velocities):
=====================================================================
 Subroutine PRICEL returns:
 Original cell was already a primitive cell.
 

 Routine SETGRP: Setting up the symmetry group for a 
 triclinic supercell.


 Subroutine GETGRP returns: Found  1 space group operations
 (whereof  1 operations were pure point group operations)
 out of a pool of  2 trial point group operations.


The dynamic configuration has the point symmetry C_1 .


 Subroutine INISYM returns: Found  1 space group operations
 (whereof  1 operations are pure point group operations),
 and found     1 'primitive' translations

 
 
 KPOINTS: k-points                                

Automatic generation of k-mesh.
Space group operators:
 irot       det(A)        alpha          n_x          n_y          n_z        tau_x        tau_y        tau_z
    1     1.000000     0.000001     1.000000     0.000000     0.000000     0.000000     0.000000     0.000000
 
 Subroutine IBZKPT returns following result:
 ===========================================
 
 Found     63 irreducible k-points:
 
 Following reciprocal coordinates:
            Coordinates               Weight
  0.000000  0.000000  0.000000      1.000000
  0.200000 -0.000000  0.000000      2.000000
  0.400000 -0.000000  0.000000      2.000000
  0.000000  0.200000 -0.000000      2.000000
  0.200000  0.200000 -0.000000      2.000000
  0.400000  0.200000  0.000000      2.000000
 -0.400000  0.200000  0.000000      2.000000
 -0.200000  0.200000 -0.000000      2.000000
  0.000000  0.400000 -0.000000      2.000000
  0.200000  0.400000 -0.000000      2.000000
  0.400000  0.400000 -0.000000      2.000000
 -0.400000  0.400000 -0.000000      2.000000
 -0.200000  0.400000  0.000000      2.000000
  0.000000  0.000000  0.200000      2.000000
  0.200000 -0.000000  0.200000      2.000000
  0.400000 -0.000000  0.200000      2.000000
 -0.400000  0.000000  0.200000      2.000000
 -0.200000  0.000000  0.200000      2.000000
 -0.000000  0.200000  0.200000      2.000000
  0.200000  0.200000  0.200000      2.000000
  0.400000  0.200000  0.200000      2.000000
 -0.400000  0.200000  0.200000      2.000000
 -0.200000  0.200000  0.200000      2.000000
  0.000000  0.400000  0.200000      2.000000
  0.200000  0.400000  0.200000      2.000000
  0.400000  0.400000  0.200000      2.000000
 -0.400000  0.400000  0.200000      2.000000
 -0.200000  0.400000  0.200000      2.000000
  0.000000 -0.400000  0.200000      2.000000
  0.200000 -0.400000  0.200000      2.000000
  0.400000 -0.400000  0.200000      2.000000
 -0.400000 -0.400000  0.200000      2.000000
 -0.200000 -0.400000  0.200000      2.000000
  0.000000 -0.200000  0.200000      2.000000
  0.200000 -0.200000  0.200000      2.000000
  0.400000 -0.200000  0.200000      2.000000
 -0.400000 -0.200000  0.200000      2.000000
 -0.200000 -0.200000  0.200000      2.000000
  0.000000  0.000000  0.400000      2.000000
  0.200000 -0.000000  0.400000      2.000000
  0.400000 -0.000000  0.400000      2.000000
 -0.400000  0.000000  0.400000      2.000000
 -0.200000  0.000000  0.400000      2.000000
  0.000000  0.200000  0.400000      2.000000
  0.200000  0.200000  0.400000      2.000000
  0.400000  0.200000  0.400000      2.000000
 -0.400000  0.200000  0.400000      2.000000
 -0.200000  0.200000  0.400000      2.000000
 -0.000000  0.400000  0.400000      2.000000
  0.200000  0.400000  0.400000      2.000000
  0.400000  0.400000  0.400000      2.000000
 -0.400000  0.400000  0.400000      2.000000
 -0.200000  0.400000  0.400000      2.000000
  0.000000 -0.400000  0.400000      2.000000
  0.200000 -0.400000  0.400000      2.000000
  0.400000 -0.400000  0.400000      2.000000
 -0.400000 -0.400000  0.400000      2.000000
 -0.200000 -0.400000  0.400000      2.000000
  0.000000 -0.200000  0.400000      2.000000
  0.200000 -0.200000  0.400000      2.000000
  0.400000 -0.200000  0.400000      2.000000
 -0.400000 -0.200000  0.400000      2.000000
 -0.200000 -0.200000  0.400000      2.000000
 
 Following cartesian coordinates:
            Coordinates               Weight
  0.000000  0.000000  0.000000      1.000000
 -0.086667 -0.080000 -0.033333      2.000000
 -0.173333 -0.160000 -0.066667      2.000000
  0.026667  0.040000 -0.066667      2.000000
 -0.060000 -0.040000 -0.100000      2.000000
 -0.146667 -0.120000 -0.133333      2.000000
  0.200000  0.200000  0.000000      2.000000
  0.113333  0.120000 -0.033333      2.000000
  0.053333  0.080000 -0.133333      2.000000
 -0.033333 -0.000000 -0.166667      2.000000
 -0.120000 -0.080000 -0.200000      2.000000
  0.226667  0.240000 -0.066667      2.000000
  0.140000  0.160000 -0.100000      2.000000
  0.040000 -0.040000  0.000000      2.000000
 -0.046667 -0.120000 -0.033333      2.000000
 -0.133333 -0.200000 -0.066667      2.000000
  0.213333  0.120000  0.066667      2.000000
  0.126667  0.040000  0.033333      2.000000
  0.066667  0.000000 -0.066667      2.000000
 -0.020000 -0.080000 -0.100000      2.000000
 -0.106667 -0.160000 -0.133333      2.000000
  0.240000  0.160000  0.000000      2.000000
  0.153333  0.080000 -0.033333      2.000000
  0.093333  0.040000 -0.133333      2.000000
  0.006667 -0.040000 -0.166667      2.000000
 -0.080000 -0.120000 -0.200000      2.000000
  0.266667  0.200000 -0.066667      2.000000
  0.180000  0.120000 -0.100000      2.000000
 -0.013333 -0.120000  0.133333      2.000000
 -0.100000 -0.200000  0.100000      2.000000
 -0.186667 -0.280000  0.066667      2.000000
  0.160000  0.040000  0.200000      2.000000
  0.073333 -0.040000  0.166667      2.000000
  0.013333 -0.080000  0.066667      2.000000
 -0.073333 -0.160000  0.033333      2.000000
 -0.160000 -0.240000  0.000000      2.000000
  0.186667  0.080000  0.133333      2.000000
  0.100000  0.000000  0.100000      2.000000
  0.080000 -0.080000  0.000000      2.000000
 -0.006667 -0.160000 -0.033333      2.000000
 -0.093333 -0.240000 -0.066667      2.000000
  0.253333  0.080000  0.066667      2.000000
  0.166667  0.000000  0.033333      2.000000
  0.106667 -0.040000 -0.066667      2.000000
  0.020000 -0.120000 -0.100000      2.000000
 -0.066667 -0.200000 -0.133333      2.000000
  0.280000  0.120000  0.000000      2.000000
  0.193333  0.040000 -0.033333      2.000000
  0.133333  0.000000 -0.133333      2.000000
  0.046667 -0.080000 -0.166667      2.000000
 -0.040000 -0.160000 -0.200000      2.000000
  0.306667  0.160000 -0.066667      2.000000
  0.220000  0.080000 -0.100000      2.000000
  0.026667 -0.160000  0.133333      2.000000
 -0.060000 -0.240000  0.100000      2.000000
 -0.146667 -0.320000  0.066667      2.000000
  0.200000  0.000000  0.200000      2.000000
  0.113333 -0.080000  0.166667      2.000000
  0.053333 -0.120000  0.066667      2.000000
 -0.033333 -0.200000  0.033333      2.000000
 -0.120000 -0.280000  0.000000      2.000000
  0.226667  0.040000  0.133333      2.000000
  0.140000 -0.040000  0.100000      2.000000
 


--------------------------------------------------------------------------------------------------------




 Dimension of arrays:
   k-points           NKPTS =     63   k-points in BZ     NKDIM =     63   number of bands    NBANDS=    120
   number of dos      NEDOS =    301   number of ions     NIONS =     30
   non local maximal  LDIM  =      6   non local SUM 2l+1 LMDIM =     18
   total plane-waves  NPLWV = 126000
   max r-space proj   IRMAX =   4090   max aug-charges    IRDMAX=  17737
   dimension x,y,z NGX =    36 NGY =   50 NGZ =   70
   dimension x,y,z NGXF=    72 NGYF=  100 NGZF=  140
   support grid    NGXF=    72 NGYF=  100 NGZF=  140
   ions per type =               6   6   6   6   6
   NGX,Y,Z   is equivalent  to a cutoff of  10.76,  9.97, 10.15 a.u.
   NGXF,Y,Z  is equivalent  to a cutoff of  21.53, 19.93, 20.31 a.u.

 SYSTEM =  Nb - Mo - Ta - Ti - V SQS               
 POSCAR =  Nb - Mo - Ta - Ti - V SQS-30 BCC        

 Startparameter for this run:
   NWRITE =      2    write-flag & timer
   PREC   = normal    normal or accurate (medium, high low for compatibility)
   ISTART =      1    job   : 0-new  1-cont  2-samecut
   ICHARG =      1    charge: 1-file 2-atom 10-const
   ISPIN  =      1    spin polarized calculation?
   LNONCOLLINEAR =      F non collinear calculations
   LSORBIT =      F    spin-orbit coupling
   INIWAV =      1    electr: 0-lowe 1-rand  2-diag
   LASPH  =      F    aspherical Exc in radial PAW
   METAGGA=      F    non-selfconsistent MetaGGA calc.

 Electronic Relaxation 1
   ENCUT  =  600.0 eV  44.10 Ry    6.64 a.u.  11.10 16.66 22.89*2*pi/ulx,y,z
   ENINI  =  600.0     initial cutoff
   ENAUG  =  455.7 eV  augmentation charge cutoff
   NELM   =    100;   NELMIN=  2; NELMDL=  0     # of ELM steps 
   EDIFF  = 0.1E-03   stopping-criterion for ELM
   LREAL  =      T    real-space projection
   NLSPLINE    = F    spline interpolate recip. space projectors
   LCOMPAT=      F    compatible to vasp.4.4
   GGA_COMPAT  = T    GGA compatible to vasp.4.4-vasp.4.6
   LMAXPAW     = -100 max onsite density
   LMAXMIX     =    2 max onsite mixed and CHGCAR
   VOSKOWN=      0    Vosko Wilk Nusair interpolation
   ROPT   =   -0.00050  -0.00050  -0.00050  -0.00050
   ROPT   =   -0.00050
 Ionic relaxation
   EDIFFG = 0.1E-02   stopping-criterion for IOM
   NSW    =      0    number of steps for IOM
   NBLOCK =      1;   KBLOCK =      1    inner block; outer block 
   IBRION =     -1    ionic relax: 0-MD 1-quasi-New 2-CG
   NFREE  =      1    steps in history (QN), initial steepest desc. (CG)
   ISIF   =      2    stress and relaxation
   IWAVPR =     10    prediction:  0-non 1-charg 2-wave 3-comb
   ISYM   =      2    0-nonsym 1-usesym 2-fastsym
   LCORR  =      T    Harris-Foulkes like correction to forces

   POTIM  = 0.5000    time-step for ionic-motion
   TEIN   =    0.0    initial temperature
   TEBEG  =    0.0;   TEEND  =   0.0 temperature during run
   SMASS  =  -3.00    Nose mass-parameter (am)
   estimated Nose-frequenzy (Omega)   =  0.10E-29 period in steps =****** mass=  -0.706E-27a.u.
   SCALEE = 1.0000    scale energy and forces
   NPACO  =    256;   APACO  = 16.0  distance and # of slots for P.C.
   PSTRESS=    0.0 pullay stress

  Mass of Ions in am
   POMASS =  92.91 95.94180.95 47.88 50.94
  Ionic Valenz
   ZVAL   =  13.00  6.00  5.00  4.00  5.00
  Atomic Wigner-Seitz radii
   RWIGS  =  -1.00 -1.00 -1.00 -1.00 -1.00
  virtual crystal weights 
   VCA    =   1.00  1.00  1.00  1.00  1.00
   NELECT =     198.0000    total number of electrons
   NUPDOWN=      -1.0000    fix difference up-down

 DOS related values:
   EMIN   =  10.00;   EMAX   =-10.00  energy-range for DOS
   EFERMI =   0.00
   ISMEAR =     1;   SIGMA  =   0.20  broadening in eV -4-tet -1-fermi 0-gaus

 Electronic relaxation 2 (details)
   IALGO  =     38    algorithm
   LDIAG  =      T    sub-space diagonalisation (order eigenvalues)
   LSUBROT=      F    optimize rotation matrix (better conditioning)
   TURBO    =      0    0=normal 1=particle mesh
   IRESTART =      0    0=no restart 2=restart with 2 vectors
   NREBOOT  =      0    no. of reboots
   NMIN     =      0    reboot dimension
   EREF     =   0.00    reference energy to select bands
   IMIX   =      4    mixing-type and parameters
     AMIX     =   0.40;   BMIX     =  1.00
     AMIX_MAG =   1.60;   BMIX_MAG =  1.00
     AMIN     =   0.10
     WC   =   100.;   INIMIX=   1;  MIXPRE=   1;  MAXMIX= -45

 Intra band minimization:
   WEIMIN = 0.0000     energy-eigenvalue tresh-hold
   EBREAK =  0.21E-06  absolut break condition
   DEPER  =   0.30     relativ break condition  

   TIME   =   0.40     timestep for ELM

  volume/ion in A,a.u.               =      16.54       111.60
  Fermi-wavevector in a.u.,A,eV,Ry     =   1.205298  2.277683 19.765773  1.452743
  Thomas-Fermi vector in A             =   2.340998
 
 Write flags
   LWAVE        =      T    write WAVECAR
   LDOWNSAMPLE  =      F    k-point downsampling of WAVECAR
   LCHARG       =      T    write CHGCAR
   LVTOT        =      F    write LOCPOT, total local potential
   LVHAR        =      F    write LOCPOT, Hartree potential only
   LELF         =      F    write electronic localiz. function (ELF)
   LORBIT       =      0    0 simple, 1 ext, 2 COOP (PROOUT), +10 PAW based schemes


 Dipole corrections
   LMONO  =      F    monopole corrections only (constant potential shift)
   LDIPOL =      F    correct potential (dipole corrections)
   IDIPOL =      0    1-x, 2-y, 3-z, 4-all directions 
   EPSILON=  1.0000000 bulk dielectric constant

 Exchange correlation treatment:
   GGA     =    PS    GGA type
   LEXCH   =    14    internal setting for exchange type
   VOSKOWN=      0    Vosko Wilk Nusair interpolation
   LHFCALC =     F    Hartree Fock is set to
   LHFONE  =     F    Hartree Fock one center treatment
   AEXX    =    0.0000 exact exchange contribution

 Linear response parameters
   LEPSILON=     F    determine dielectric tensor
   LRPA    =     F    only Hartree local field effects (RPA)
   LNABLA  =     F    use nabla operator in PAW spheres
   LVEL    =     F    velocity operator in full k-point grid
   LINTERFAST=   F  fast interpolation
   KINTER  =     0    interpolate to denser k-point grid
   CSHIFT  =0.1000    complex shift for real part using Kramers Kronig
   OMEGAMAX=  -1.0    maximum frequency
   DEG_THRESHOLD= 0.2000000E-02 threshold for treating states as degnerate
   RTIME   =   -0.100 relaxation time in fs
  (WPLASMAI=    0.000 imaginary part of plasma frequency in eV, 0.658/RTIME)
   DFIELD  = 0.0000000 0.0000000 0.0000000 field for delta impulse in time
 
 Orbital magnetization related:
   ORBITALMAG=     F  switch on orbital magnetization
   LCHIMAG   =     F  perturbation theory with respect to B field
   DQ        =  0.001000  dq finite difference perturbation B field
   LLRAUG    =     F  two centre corrections for induced B field



--------------------------------------------------------------------------------------------------------


 Static calculation
 charge density and potential will be updated during run
 non-spin polarized calculation
 Variant of blocked Davidson
 Davidson routine will perform the subspace rotation
 perform sub-space diagonalisation
    after iterative eigenvector-optimisation
 modified Broyden-mixing scheme, WC =      100.0
 initial mixing is a Kerker type mixing with AMIX =  0.4000 and BMIX =      1.0000
 Hartree-type preconditioning will be used
 using additional bands           21
 real space projection scheme for non local part
 use partial core corrections
 calculate Harris-corrections to forces 
   (improved forces if not selfconsistent)
 use gradient corrections 
 use of overlap-Matrix (Vanderbilt PP)
 Methfessel and Paxton  Order N= 1 SIGMA  =   0.20


--------------------------------------------------------------------------------------------------------


  energy-cutoff  :      600.00
  volume of cell :      496.14
      direct lattice vectors                 reciprocal lattice vectors
    -3.210000000 -3.210000000 -3.210000000    -0.134994808 -0.124610592 -0.051921080
     1.605000000  1.605000000 -8.025000000     0.041536864  0.062305296 -0.103842160
     8.025000000 -8.025000000 -1.605000000     0.062305296 -0.062305296  0.000000000

  length of vectors
     5.559883092  8.339824638 11.461992628     0.190911488  0.128025213  0.088112995


 
 old parameters found on file WAVECAR:
  energy-cutoff  :      600.00
  volume of cell :      496.14
      direct lattice vectors                 reciprocal lattice vectors
    -3.210000000 -3.210000000 -3.210000000    -0.134994808 -0.124610592 -0.051921080
     1.605000000  1.605000000 -8.025000000     0.041536864  0.062305296 -0.103842160
     8.025000000 -8.025000000 -1.605000000     0.062305296 -0.062305296  0.000000000

  length of vectors

 
 k-points in units of 2pi/SCALE and weight: k-points                                
   0.00000000  0.00000000  0.00000000       0.008
  -0.08666667 -0.08000000 -0.03333333       0.016
  -0.17333333 -0.16000000 -0.06666667       0.016
   0.02666667  0.04000000 -0.06666667       0.016
  -0.06000000 -0.04000000 -0.10000000       0.016
  -0.14666667 -0.12000000 -0.13333333       0.016
   0.20000000  0.20000000  0.00000000       0.016
   0.11333333  0.12000000 -0.03333333       0.016
   0.05333333  0.08000000 -0.13333333       0.016
  -0.03333333 -0.00000000 -0.16666667       0.016
  -0.12000000 -0.08000000 -0.20000000       0.016
   0.22666667  0.24000000 -0.06666667       0.016
   0.14000000  0.16000000 -0.10000000       0.016
   0.04000000 -0.04000000  0.00000000       0.016
  -0.04666667 -0.12000000 -0.03333333       0.016
  -0.13333333 -0.20000000 -0.06666667       0.016
   0.21333333  0.12000000  0.06666667       0.016
   0.12666667  0.04000000  0.03333333       0.016
   0.06666667  0.00000000 -0.06666667       0.016
  -0.02000000 -0.08000000 -0.10000000       0.016
  -0.10666667 -0.16000000 -0.13333333       0.016
   0.24000000  0.16000000  0.00000000       0.016
   0.15333333  0.08000000 -0.03333333       0.016
   0.09333333  0.04000000 -0.13333333       0.016
   0.00666667 -0.04000000 -0.16666667       0.016
  -0.08000000 -0.12000000 -0.20000000       0.016
   0.26666667  0.20000000 -0.06666667       0.016
   0.18000000  0.12000000 -0.10000000       0.016
  -0.01333333 -0.12000000  0.13333333       0.016
  -0.10000000 -0.20000000  0.10000000       0.016
  -0.18666667 -0.28000000  0.06666667       0.016
   0.16000000  0.04000000  0.20000000       0.016
   0.07333333 -0.04000000  0.16666667       0.016
   0.01333333 -0.08000000  0.06666667       0.016
  -0.07333333 -0.16000000  0.03333333       0.016
  -0.16000000 -0.24000000  0.00000000       0.016
   0.18666667  0.08000000  0.13333333       0.016
   0.10000000  0.00000000  0.10000000       0.016
   0.08000000 -0.08000000  0.00000000       0.016
  -0.00666667 -0.16000000 -0.03333333       0.016
  -0.09333333 -0.24000000 -0.06666667       0.016
   0.25333333  0.08000000  0.06666667       0.016
   0.16666667  0.00000000  0.03333333       0.016
   0.10666667 -0.04000000 -0.06666667       0.016
   0.02000000 -0.12000000 -0.10000000       0.016
  -0.06666667 -0.20000000 -0.13333333       0.016
   0.28000000  0.12000000  0.00000000       0.016
   0.19333333  0.04000000 -0.03333333       0.016
   0.13333333  0.00000000 -0.13333333       0.016
   0.04666667 -0.08000000 -0.16666667       0.016
  -0.04000000 -0.16000000 -0.20000000       0.016
   0.30666667  0.16000000 -0.06666667       0.016
   0.22000000  0.08000000 -0.10000000       0.016
   0.02666667 -0.16000000  0.13333333       0.016
  -0.06000000 -0.24000000  0.10000000       0.016
  -0.14666667 -0.32000000  0.06666667       0.016
   0.20000000  0.00000000  0.20000000       0.016
   0.11333333 -0.08000000  0.16666667       0.016
   0.05333333 -0.12000000  0.06666667       0.016
  -0.03333333 -0.20000000  0.03333333       0.016
  -0.12000000 -0.28000000  0.00000000       0.016
   0.22666667  0.04000000  0.13333333       0.016
   0.14000000 -0.04000000  0.10000000       0.016
 
 k-points in reciprocal lattice and weights: k-points                                
   0.00000000  0.00000000  0.00000000       0.008
   0.20000000 -0.00000000  0.00000000       0.016
   0.40000000 -0.00000000  0.00000000       0.016
   0.00000000  0.20000000 -0.00000000       0.016
   0.20000000  0.20000000 -0.00000000       0.016
   0.40000000  0.20000000  0.00000000       0.016
  -0.40000000  0.20000000  0.00000000       0.016
  -0.20000000  0.20000000 -0.00000000       0.016
   0.00000000  0.40000000 -0.00000000       0.016
   0.20000000  0.40000000 -0.00000000       0.016
   0.40000000  0.40000000 -0.00000000       0.016
  -0.40000000  0.40000000 -0.00000000       0.016
  -0.20000000  0.40000000  0.00000000       0.016
   0.00000000  0.00000000  0.20000000       0.016
   0.20000000 -0.00000000  0.20000000       0.016
   0.40000000 -0.00000000  0.20000000       0.016
  -0.40000000  0.00000000  0.20000000       0.016
  -0.20000000  0.00000000  0.20000000       0.016
  -0.00000000  0.20000000  0.20000000       0.016
   0.20000000  0.20000000  0.20000000       0.016
   0.40000000  0.20000000  0.20000000       0.016
  -0.40000000  0.20000000  0.20000000       0.016
  -0.20000000  0.20000000  0.20000000       0.016
   0.00000000  0.40000000  0.20000000       0.016
   0.20000000  0.40000000  0.20000000       0.016
   0.40000000  0.40000000  0.20000000       0.016
  -0.40000000  0.40000000  0.20000000       0.016
  -0.20000000  0.40000000  0.20000000       0.016
   0.00000000 -0.40000000  0.20000000       0.016
   0.20000000 -0.40000000  0.20000000       0.016
   0.40000000 -0.40000000  0.20000000       0.016
  -0.40000000 -0.40000000  0.20000000       0.016
  -0.20000000 -0.40000000  0.20000000       0.016
   0.00000000 -0.20000000  0.20000000       0.016
   0.20000000 -0.20000000  0.20000000       0.016
   0.40000000 -0.20000000  0.20000000       0.016
  -0.40000000 -0.20000000  0.20000000       0.016
  -0.20000000 -0.20000000  0.20000000       0.016
   0.00000000  0.00000000  0.40000000       0.016
   0.20000000 -0.00000000  0.40000000       0.016
   0.40000000 -0.00000000  0.40000000       0.016
  -0.40000000  0.00000000  0.40000000       0.016
  -0.20000000  0.00000000  0.40000000       0.016
   0.00000000  0.20000000  0.40000000       0.016
   0.20000000  0.20000000  0.40000000       0.016
   0.40000000  0.20000000  0.40000000       0.016
  -0.40000000  0.20000000  0.40000000       0.016
  -0.20000000  0.20000000  0.40000000       0.016
  -0.00000000  0.40000000  0.40000000       0.016
   0.20000000  0.40000000  0.40000000       0.016
   0.40000000  0.40000000  0.40000000       0.016
  -0.40000000  0.40000000  0.40000000       0.016
  -0.20000000  0.40000000  0.40000000       0.016
   0.00000000 -0.40000000  0.40000000       0.016
   0.20000000 -0.40000000  0.40000000       0.016
   0.40000000 -0.40000000  0.40000000       0.016
  -0.40000000 -0.40000000  0.40000000       0.016
  -0.20000000 -0.40000000  0.40000000       0.016
   0.00000000 -0.20000000  0.40000000       0.016
   0.20000000 -0.20000000  0.40000000       0.016
   0.40000000 -0.20000000  0.40000000       0.016
  -0.40000000 -0.20000000  0.40000000       0.016
  -0.20000000 -0.20000000  0.40000000       0.016
 
 position of ions in fractional coordinates (direct lattice) 
   0.96666667  0.93333333  0.40000000
   0.63333333  0.26666667  0.40000000
   0.50000000  0.00000000  0.00000000
   0.00000000  0.00000000  0.00000000
   0.10000000  0.20000000  0.80000000
   0.03333333  0.06666667  0.60000000
   0.90000000  0.80000000  0.20000000
   0.80000000  0.60000000  0.40000000
   0.73333333  0.46666667  0.20000000
   0.66666667  0.33333333  0.00000000
   0.36666667  0.73333333  0.60000000
   0.13333333  0.26666667  0.40000000
   0.83333333  0.66666667  0.00000000
   0.93333333  0.86666667  0.80000000
   0.56666667  0.13333333  0.20000000
   0.40000000  0.80000000  0.20000000
   0.43333333  0.86666667  0.80000000
   0.30000000  0.60000000  0.40000000
   0.86666667  0.73333333  0.60000000
   0.46666667  0.93333333  0.40000000
   0.16666667  0.33333333  0.00000000
   0.26666667  0.53333333  0.80000000
   0.20000000  0.40000000  0.60000000
   0.06666667  0.13333333  0.20000000
   0.76666667  0.53333333  0.80000000
   0.70000000  0.40000000  0.60000000
   0.60000000  0.20000000  0.80000000
   0.53333333  0.06666667  0.60000000
   0.33333333  0.66666667  0.00000000
   0.23333333  0.46666667  0.20000000
 
 position of ions in cartesian coordinates  (Angst):
   1.60499998 -4.81500002-11.23499998
   1.60500002 -4.81499998 -4.81500002
  -1.60500000 -1.60500000 -1.60500000
   0.00000000  0.00000000  0.00000000
   6.42000000 -6.42000000 -3.21000000
   4.81500002 -4.81499998 -1.60500002
   0.00000000 -3.21000000 -9.63000000
   1.60500000 -4.81500000 -8.02500000
   0.00000002 -3.20999998 -6.42000002
  -1.60500002 -1.60500002 -4.81499998
   4.81499998 -4.81500002 -8.02499998
   3.21000002 -3.20999998 -3.21000002
  -1.60499998 -1.60499998 -8.02500002
   4.81500002 -8.02499998-11.23500002
  -0.00000002 -3.21000002 -3.20999998
   1.60500000 -1.60500000 -8.02500000
   6.42000002 -6.41999998 -9.63000002
   3.21000000 -3.21000000 -6.42000000
   3.20999998 -6.42000002 -9.62999998
   3.20999998 -3.21000002 -9.62999998
  -0.00000002 -0.00000002 -3.20999998
   6.41999998 -6.42000002 -6.41999998
   4.81500000 -4.81500000 -4.81500000
   1.60499998 -1.60500002 -1.60499998
   4.81499998 -8.02500002 -8.02499998
   3.21000000 -6.42000000 -6.42000000
   4.81500000 -8.02500000 -4.81500000
   3.21000002 -6.41999998 -3.21000002
   0.00000002  0.00000002 -6.42000002
   1.60500002 -1.60499998 -4.81500002
 


--------------------------------------------------------------------------------------------------------


 k-point  1 :   0.0000 0.0000 0.0000  plane waves:   16541
 k-point  2 :   0.2000-0.0000 0.0000  plane waves:   16555
 k-point  3 :   0.4000-0.0000 0.0000  plane waves:   16553
 k-point  4 :   0.0000 0.2000-0.0000  plane waves:   16548
 k-point  5 :   0.2000 0.2000-0.0000  plane waves:   16574
 k-point  6 :   0.4000 0.2000 0.0000  plane waves:   16586
 k-point  7 :  -0.4000 0.2000 0.0000  plane waves:   16555
 k-point  8 :  -0.2000 0.2000-0.0000  plane waves:   16556
 k-point  9 :   0.0000 0.4000-0.0000  plane waves:   16549
 k-point 10 :   0.2000 0.4000-0.0000  plane waves:   16546
 k-point 11 :   0.4000 0.4000-0.0000  plane waves:   16558
 k-point 12 :  -0.4000 0.4000-0.0000  plane waves:   16563
 k-point 13 :  -0.2000 0.4000 0.0000  plane waves:   16533
 k-point 14 :   0.0000 0.0000 0.2000  plane waves:   16553
 k-point 15 :   0.2000-0.0000 0.2000  plane waves:   16580
 k-point 16 :   0.4000-0.0000 0.2000  plane waves:   16577
 k-point 17 :  -0.4000 0.0000 0.2000  plane waves:   16568
 k-point 18 :  -0.2000 0.0000 0.2000  plane waves:   16557
 k-point 19 :  -0.0000 0.2000 0.2000  plane waves:   16528
 k-point 20 :   0.2000 0.2000 0.2000  plane waves:   16580
 k-point 21 :   0.4000 0.2000 0.2000  plane waves:   16593
 k-point 22 :  -0.4000 0.2000 0.2000  plane waves:   16577
 k-point 23 :  -0.2000 0.2000 0.2000  plane waves:   16546
 k-point 24 :   0.0000 0.4000 0.2000  plane waves:   16539
 k-point 25 :   0.2000 0.4000 0.2000  plane waves:   16563
 k-point 26 :   0.4000 0.4000 0.2000  plane waves:   16577
 k-point 27 :  -0.4000 0.4000 0.2000  plane waves:   16564
 k-point 28 :  -0.2000 0.4000 0.2000  plane waves:   16533
 k-point 29 :   0.0000-0.4000 0.2000  plane waves:   16551
 k-point 30 :   0.2000-0.4000 0.2000  plane waves:   16533
 k-point 31 :   0.4000-0.4000 0.2000  plane waves:   16568
 k-point 32 :  -0.4000-0.4000 0.2000  plane waves:   16555
 k-point 33 :  -0.2000-0.4000 0.2000  plane waves:   16545
 k-point 34 :   0.0000-0.2000 0.2000  plane waves:   16539
 k-point 35 :   0.2000-0.2000 0.2000  plane waves:   16558
 k-point 36 :   0.4000-0.2000 0.2000  plane waves:   16553
 k-point 37 :  -0.4000-0.2000 0.2000  plane waves:   16573
 k-point 38 :  -0.2000-0.2000 0.2000  plane waves:   16539
 k-point 39 :   0.0000 0.0000 0.4000  plane waves:   16546
 k-point 40 :   0.2000-0.0000 0.4000  plane waves:   16574
 k-point 41 :   0.4000-0.0000 0.4000  plane waves:   16568
 k-point 42 :  -0.4000 0.0000 0.4000  plane waves:   16581
 k-point 43 :  -0.2000 0.0000 0.4000  plane waves:   16560
 k-point 44 :   0.0000 0.2000 0.4000  plane waves:   16527
 k-point 45 :   0.2000 0.2000 0.4000  plane waves:   16570
 k-point 46 :   0.4000 0.2000 0.4000  plane waves:   16591
 k-point 47 :  -0.4000 0.2000 0.4000  plane waves:   16588
 k-point 48 :  -0.2000 0.2000 0.4000  plane waves:   16545
 k-point 49 :  -0.0000 0.4000 0.4000  plane waves:   16574
 k-point 50 :   0.2000 0.4000 0.4000  plane waves:   16546
 k-point 51 :   0.4000 0.4000 0.4000  plane waves:   16561
 k-point 52 :  -0.4000 0.4000 0.4000  plane waves:   16582
 k-point 53 :  -0.2000 0.4000 0.4000  plane waves:   16539
 k-point 54 :   0.0000-0.4000 0.4000  plane waves:   16550
 k-point 55 :   0.2000-0.4000 0.4000  plane waves:   16557
 k-point 56 :   0.4000-0.4000 0.4000  plane waves:   16558
 k-point 57 :  -0.4000-0.4000 0.4000  plane waves:   16591
 k-point 58 :  -0.2000-0.4000 0.4000  plane waves:   16551
 k-point 59 :   0.0000-0.2000 0.4000  plane waves:   16541
 k-point 60 :   0.2000-0.2000 0.4000  plane waves:   16547
 k-point 61 :   0.4000-0.2000 0.4000  plane waves:   16576
 k-point 62 :  -0.4000-0.2000 0.4000  plane waves:   16576
 k-point 63 :  -0.2000-0.2000 0.4000  plane waves:   16558

 maximum and minimum number of plane-waves per node :      4177     4092

 maximum number of plane-waves:     16593
 maximum index in each direction: 
   IXMAX=   11   IYMAX=   17   IZMAX=   22
   IXMIN=  -11   IYMIN=  -17   IZMIN=  -23


 real space projection operators:
  total allocation   :      16010.37 KBytes
  max/ min on nodes  :       4005.16       4000.22


 parallel 3D FFT for wavefunctions:
    minimum data exchange during FFTs selected (reduces bandwidth)
 parallel 3D FFT for charge:
    minimum data exchange during FFTs selected (reduces bandwidth)


 total amount of memory used by VASP MPI-rank0   109556. kBytes
=======================================================================

   base      :      30000. kBytes
   nonlr-proj:       6996. kBytes
   fftplans  :       2332. kBytes
   grid      :       4665. kBytes
   one-center:        124. kBytes
   wavefun   :      65439. kBytes
 
     INWAV:  cpu time    6.9610: real time    8.5501
 Broyden mixing: mesh for mixing (old mesh)
   NGX = 23   NGY = 33   NGZ = 45
  (NGX  = 72   NGY  =100   NGZ  =140)
  gives a total of  34155 points

 initial charge density was supplied:
 number of electron     198.0000009 magnetization 
 keeping initial charge density in first step


--------------------------------------------------------------------------------------------------------


 Maximum index for non-local projection operator          993
 Maximum index for augmentation-charges         1379 (set IRDMAX)


--------------------------------------------------------------------------------------------------------


 First call to EWALD:  gamma=   0.224
 Maximum number of real-space cells 4x 3x 2
 Maximum number of reciprocal cells 2x 3x 4

    FEWALD:  cpu time    0.0028: real time    0.0032


--------------------------------------- Iteration      1(   1)  ---------------------------------------


    POTLOK:  cpu time    0.0258: real time    0.0452
    SETDIJ:  cpu time    0.0057: real time    0.0057
     EDDAV:  cpu time   28.5257: real time   28.5679
       DOS:  cpu time    0.0041: real time    0.0041
    CHARGE:  cpu time    0.5904: real time    0.5909
    MIXING:  cpu time    0.0014: real time    0.0016
    --------------------------------------------
      LOOP:  cpu time   29.1532: real time   29.2154

 eigenvalue-minimisations  : 25392
 total energy-change (2. order) :-0.3183044E+03  (-0.1347704E-02)
 number of electron     198.0000009 magnetization 
 augmentation part       33.8076649 magnetization 

 Broyden mixing:
  rms(total) = 0.11546E-01    rms(broyden)= 0.11545E-01
  rms(prec ) = 0.14588E-01
  weight for this iteration     100.00

 Free energy of the ion-electron system (eV)
  ---------------------------------------------------
  alpha Z        PSCENC =      1173.46710061
  Ewald energy   TEWEN  =    -11354.78951466
  -Hartree energ DENC   =     -2994.12210536
  -exchange      EXHF   =         0.00000000
  -V(xc)+E(xc)   XCENC  =      -890.15318380
  PAW double counting   =     18195.68118581   -16685.93667786
  entropy T*S    EENTRO =        -0.01123714
  eigenvalues    EBANDS =      -768.34788402
  atomic energy  EATOM  =     13005.90793652
  Solvation  Ediel_sol  =         0.00000000
  ---------------------------------------------------
  free energy    TOTEN  =      -318.30437990 eV

  energy without entropy =     -318.29314275  energy(sigma->0) =     -318.30063418


--------------------------------------------------------------------------------------------------------




--------------------------------------- Iteration      1(   2)  ---------------------------------------


    POTLOK:  cpu time    0.0227: real time    0.0243
    SETDIJ:  cpu time    0.0051: real time    0.0051
     EDDAV:  cpu time   27.1040: real time   27.1376
       DOS:  cpu time    0.0040: real time    0.0040
    CHARGE:  cpu time    0.5893: real time    0.5897
    MIXING:  cpu time    0.0012: real time    0.0012
    --------------------------------------------
      LOOP:  cpu time   27.7263: real time   27.7619

 eigenvalue-minimisations  : 24440
 total energy-change (2. order) : 0.6570725E-01  (-0.2064094E-02)
 number of electron     198.0000009 magnetization 
 augmentation part       33.7619693 magnetization 

 Broyden mixing:
  rms(total) = 0.36391E-01    rms(broyden)= 0.36390E-01
  rms(prec ) = 0.59229E-01
  weight for this iteration     100.00

 eigenvalues of (default mixing * dielectric matrix)
  average eigenvalue GAMMA=   0.2053
  0.2053

 Free energy of the ion-electron system (eV)
  ---------------------------------------------------
  alpha Z        PSCENC =      1173.46710061
  Ewald energy   TEWEN  =    -11354.78951466
  -Hartree energ DENC   =     -2994.26008790
  -exchange      EXHF   =         0.00000000
  -V(xc)+E(xc)   XCENC  =      -890.15036449
  PAW double counting   =     18196.11204852   -16686.43781697
  entropy T*S    EENTRO =        -0.01182149
  eigenvalues    EBANDS =      -768.07615279
  atomic energy  EATOM  =     13005.90793652
  Solvation  Ediel_sol  =         0.00000000
  ---------------------------------------------------
  free energy    TOTEN  =      -318.23867265 eV

  energy without entropy =     -318.22685116  energy(sigma->0) =     -318.23473215


--------------------------------------------------------------------------------------------------------




--------------------------------------- Iteration      1(   3)  ---------------------------------------


    POTLOK:  cpu time    0.0245: real time    0.0246
    SETDIJ:  cpu time    0.0058: real time    0.0058
     EDDAV:  cpu time   25.8378: real time   25.8696
       DOS:  cpu time    0.0039: real time    0.0039
    CHARGE:  cpu time    0.5864: real time    0.5869
    MIXING:  cpu time    0.0009: real time    0.0009
    --------------------------------------------
      LOOP:  cpu time   26.4593: real time   26.4917

 eigenvalue-minimisations  : 23096
 total energy-change (2. order) : 0.1495133E-02  (-0.8119391E-03)
 number of electron     198.0000009 magnetization 
 augmentation part       33.7947196 magnetization 

 Broyden mixing:
  rms(total) = 0.63668E-02    rms(broyden)= 0.63667E-02
  rms(prec ) = 0.10463E-01
  weight for this iteration     100.00

 eigenvalues of (default mixing * dielectric matrix)
  average eigenvalue GAMMA=   0.3762
  0.5874  0.1650

 Free energy of the ion-electron system (eV)
  ---------------------------------------------------
  alpha Z        PSCENC =      1173.46710061
  Ewald energy   TEWEN  =    -11354.78951466
  -Hartree energ DENC   =     -2994.23346891
  -exchange      EXHF   =         0.00000000
  -V(xc)+E(xc)   XCENC  =      -890.15027205
  PAW double counting   =     18196.37548993   -16686.67728462
  entropy T*S    EENTRO =        -0.01101382
  eigenvalues    EBANDS =      -768.12615052
  atomic energy  EATOM  =     13005.90793652
  Solvation  Ediel_sol  =         0.00000000
  ---------------------------------------------------
  free energy    TOTEN  =      -318.23717752 eV

  energy without entropy =     -318.22616370  energy(sigma->0) =     -318.23350624


--------------------------------------------------------------------------------------------------------




--------------------------------------- Iteration      1(   4)  ---------------------------------------


    POTLOK:  cpu time    0.0282: real time    0.0343
    SETDIJ:  cpu time    0.0051: real time    0.0051
     EDDAV:  cpu time   22.3890: real time   22.4210
       DOS:  cpu time    0.0040: real time    0.0040
    CHARGE:  cpu time    0.5860: real time    0.5865
    MIXING:  cpu time    0.0009: real time    0.0009
    --------------------------------------------
      LOOP:  cpu time   23.0132: real time   23.0518

 eigenvalue-minimisations  : 19408
 total energy-change (2. order) :-0.7068150E-04  (-0.1252567E-03)
 number of electron     198.0000009 magnetization 
 augmentation part       33.7925073 magnetization 

 Broyden mixing:
  rms(total) = 0.10882E-01    rms(broyden)= 0.10882E-01
  rms(prec ) = 0.19505E-01
  weight for this iteration     100.00

 eigenvalues of (default mixing * dielectric matrix)
  average eigenvalue GAMMA=   0.3213
  0.6371  0.1940  0.1328

 Free energy of the ion-electron system (eV)
  ---------------------------------------------------
  alpha Z        PSCENC =      1173.46710061
  Ewald energy   TEWEN  =    -11354.78951466
  -Hartree energ DENC   =     -2994.25552750
  -exchange      EXHF   =         0.00000000
  -V(xc)+E(xc)   XCENC  =      -890.14825412
  PAW double counting   =     18196.52527642   -16686.82205836
  entropy T*S    EENTRO =        -0.01116891
  eigenvalues    EBANDS =      -768.11103820
  atomic energy  EATOM  =     13005.90793652
  Solvation  Ediel_sol  =         0.00000000
  ---------------------------------------------------
  free energy    TOTEN  =      -318.23724820 eV

  energy without entropy =     -318.22607929  energy(sigma->0) =     -318.23352523


--------------------------------------------------------------------------------------------------------




--------------------------------------- Iteration      1(   5)  ---------------------------------------


    POTLOK:  cpu time    0.0234: real time    0.0238
    SETDIJ:  cpu time    0.0051: real time    0.0051
     EDDAV:  cpu time   18.7288: real time   18.7516
       DOS:  cpu time    0.0039: real time    0.0039
    --------------------------------------------
      LOOP:  cpu time   18.7613: real time   18.7845

 eigenvalue-minimisations  : 15408
 total energy-change (2. order) : 0.8807681E-04  (-0.6109277E-04)
 number of electron     198.0000009 magnetization 
 augmentation part       33.7925073 magnetization 

 Free energy of the ion-electron system (eV)
  ---------------------------------------------------
  alpha Z        PSCENC =      1173.46710061
  Ewald energy   TEWEN  =    -11354.78951466
  -Hartree energ DENC   =     -2994.27393566
  -exchange      EXHF   =         0.00000000
  -V(xc)+E(xc)   XCENC  =      -890.14789541
  PAW double counting   =     18196.55842951   -16686.85316899
  entropy T*S    EENTRO =        -0.01108335
  eigenvalues    EBANDS =      -768.09502868
  atomic energy  EATOM  =     13005.90793652
  Solvation  Ediel_sol  =         0.00000000
  ---------------------------------------------------
  free energy    TOTEN  =      -318.23716012 eV

  energy without entropy =     -318.22607677  energy(sigma->0) =     -318.23346567


--------------------------------------------------------------------------------------------------------




 average (electrostatic) potential at core
  the test charge radii are     1.0703  1.2296  1.2538  1.2598  1.2064
  (the norm of the test charge is              1.0000)
       1 -81.3079       2 -81.3397       3 -81.1744       4 -81.3112       5 -81.3127
       6 -81.3321       7 -36.2237       8 -36.3371       9 -36.3280      10 -36.2676
      11 -36.1306      12 -36.2438      13 -34.1672      14 -33.9992      15 -34.1259
      16 -34.1554      17 -34.0175      18 -34.1222      19 -22.6562      20 -22.5939
      21 -22.6893      22 -22.7608      23 -22.7452      24 -22.5864      25 -39.0405
      26 -39.1031      27 -39.0162      28 -39.0696      29 -39.0227      30 -39.1579
 
 
 
 E-fermi :   6.2744     XC(G=0): -12.3903     alpha+bet :-14.6250


 k-point     1 :       0.0000    0.0000    0.0000
  band No.  band energies     occupation 
      1     -47.7723      2.00000
      2     -47.7526      2.00000
      3     -47.7148      2.00000
      4     -47.6711      2.00000
      5     -47.6422      2.00000
      6     -47.5465      2.00000
      7     -24.4357      2.00000
      8     -24.2991      2.00000
      9     -24.1581      2.00000
     10     -24.1188      2.00000
     11     -23.9169      2.00000
     12     -23.9112      2.00000
     13     -23.9074      2.00000
     14     -23.8622      2.00000
     15     -23.8475      2.00000
     16     -23.8300      2.00000
     17     -23.8103      2.00000
     18     -23.7672      2.00000
     19     -23.7236      2.00000
     20     -23.7072      2.00000
     21     -23.5852      2.00000
     22     -23.5680      2.00000
     23     -23.4324      2.00000
     24     -23.2215      2.00000
     25      -0.4167      2.00000
     26       0.8485      2.00000
     27       1.2027      2.00000
     28       2.0192      2.00000
     29       2.1824      2.00000
     30       2.2517      2.00000
     31       2.3736      2.00000
     32       2.5058      2.00000
     33       2.5397      2.00000
     34       2.6281      2.00000
     35       2.6708      2.00000
     36       2.7513      2.00000
     37       2.8117      2.00000
     38       2.8524      2.00000
     39       2.9852      2.00000
     40       3.0316      2.00000
     41       3.1070      2.00000
     42       3.2209      2.00000
     43       3.3221      2.00000
     44       3.3582      2.00000
     45       3.4139      2.00000
     46       3.4694      2.00000
     47       3.5368      2.00000
     48       3.5540      2.00000
     49       3.6801      2.00000
     50       3.7294      2.00000
     51       3.8137      2.00000
     52       3.8789      2.00000
     53       3.9467      2.00000
     54       3.9824      2.00000
     55       4.1201      2.00000
     56       4.1816      2.00000
     57       4.2610      2.00000
     58       4.3021      2.00000
     59       4.4555      2.00000
     60       4.4899      2.00000
     61       4.5674      2.00000
     62       4.6128      2.00000
     63       4.6202      2.00000
     64       4.7057      2.00000
     65       4.7109      2.00000
     66       4.8012      2.00000
     67       4.8169      2.00000
     68       4.8984      2.00000
     69       4.9186      2.00000
     70       4.9659      2.00000
     71       5.0196      2.00000
     72       5.0458      2.00000
     73       5.1076      2.00000
     74       5.1527      2.00000
     75       5.1648      2.00000
     76       5.1776      2.00000
     77       5.2014      2.00000
     78       5.3132      2.00000
     79       5.3761      2.00000
     80       5.4617      2.00000
     81       5.6156      2.00003
     82       5.6678      2.00016
     83       5.7174      2.00059
     84       5.7518      2.00138
     85       5.7920      2.00340
     86       5.8532      2.01119
     87       5.9116      2.02782
     88       5.9344      2.03710
     89       5.9580      2.04782
     90       5.9631      2.05015
     91       5.9848      2.05981
     92       6.0272      2.07088
     93       6.0529      2.06596
     94       6.1065      1.99890
     95       6.2612      1.11118
     96       6.2922      0.85010
     97       6.3714      0.27653
     98       6.3861      0.19888
     99       6.4204      0.06021
    100       6.5056     -0.06934
    101       6.5591     -0.06174
    102       6.5976     -0.04465
    103       6.6898     -0.01237
    104       6.6970     -0.01091
    105       6.7060     -0.00928
    106       6.7932     -0.00151
    107       7.0222     -0.00000
    108       7.1681     -0.00000
    109       7.1938     -0.00000
    110       7.2775     -0.00000
    111       7.6815     -0.00000
    112       7.8374     -0.00000
    113       7.9724     -0.00000
    114       8.0569     -0.00000
    115       8.0906     -0.00000
    116       8.1249     -0.00000
    117       8.1435     -0.00000
    118       8.1738     -0.00000
    119       8.2487     -0.00000
    120       8.3121     -0.00000

 k-point     2 :       0.2000   -0.0000    0.0000
  band No.  band energies     occupation 
      1     -47.7706      2.00000
      2     -47.7475      2.00000
      3     -47.7125      2.00000
      4     -47.6702      2.00000
      5     -47.6416      2.00000
      6     -47.5569      2.00000
      7     -24.3495      2.00000
      8     -24.2868      2.00000
      9     -24.1519      2.00000
     10     -24.1131      2.00000
     11     -23.9184      2.00000
     12     -23.9129      2.00000
     13     -23.9027      2.00000
     14     -23.8638      2.00000
     15     -23.8465      2.00000
     16     -23.8337      2.00000
     17     -23.8124      2.00000
     18     -23.7696      2.00000
     19     -23.7327      2.00000
     20     -23.7095      2.00000
     21     -23.5903      2.00000
     22     -23.5727      2.00000
     23     -23.4341      2.00000
     24     -23.3365      2.00000
     25      -0.1140      2.00000
     26       1.1157      2.00000
     27       1.4591      2.00000
     28       2.0444      2.00000
     29       2.3890      2.00000
     30       2.4852      2.00000
     31       2.5365      2.00000
     32       2.6688      2.00000
     33       2.6956      2.00000
     34       2.7360      2.00000
     35       2.8633      2.00000
     36       2.9357      2.00000
     37       2.9856      2.00000
     38       3.0758      2.00000
     39       3.1288      2.00000
[...]
    114       7.4915     -0.00000
    115       7.5502     -0.00000
    116       7.6045     -0.00000
    117       7.6683     -0.00000
    118       7.7389     -0.00000
    119       7.7723     -0.00000
    120       7.8008     -0.00000

 k-point    63 :      -0.2000   -0.2000    0.4000
  band No.  band energies     occupation 
      1     -47.7705      2.00000
      2     -47.7479      2.00000
      3     -47.7123      2.00000
      4     -47.6700      2.00000
      5     -47.6415      2.00000
      6     -47.5569      2.00000
      7     -24.3491      2.00000
      8     -24.2880      2.00000
      9     -24.1553      2.00000
     10     -24.1142      2.00000
     11     -23.9183      2.00000
     12     -23.9121      2.00000
     13     -23.9027      2.00000
     14     -23.8640      2.00000
     15     -23.8468      2.00000
     16     -23.8342      2.00000
     17     -23.8126      2.00000
     18     -23.7687      2.00000
     19     -23.7329      2.00000
     20     -23.7093      2.00000
     21     -23.5883      2.00000
     22     -23.5689      2.00000
     23     -23.4344      2.00000
     24     -23.3365      2.00000
     25       0.1392      2.00000
     26       0.4151      2.00000
     27       1.9793      2.00000
     28       2.1865      2.00000
     29       2.2715      2.00000
     30       2.4338      2.00000
     31       2.5467      2.00000
     32       2.5706      2.00000
     33       2.7017      2.00000
     34       2.7738      2.00000
     35       2.8114      2.00000
     36       2.8917      2.00000
     37       2.9383      2.00000
     38       2.9858      2.00000
     39       3.0653      2.00000
     40       3.1516      2.00000
     41       3.1795      2.00000
     42       3.2203      2.00000
     43       3.3067      2.00000
     44       3.3684      2.00000
     45       3.4902      2.00000
     46       3.5153      2.00000
     47       3.7003      2.00000
     48       3.7430      2.00000
     49       3.8260      2.00000
     50       3.8565      2.00000
     51       3.9056      2.00000
     52       3.9659      2.00000
     53       3.9948      2.00000
     54       4.0847      2.00000
     55       4.1435      2.00000
     56       4.2245      2.00000
     57       4.3635      2.00000
     58       4.4472      2.00000
     59       4.5233      2.00000
     60       4.6057      2.00000
     61       4.6286      2.00000
     62       4.6799      2.00000
     63       4.6950      2.00000
     64       4.7424      2.00000
     65       4.8004      2.00000
     66       4.8303      2.00000
     67       4.8790      2.00000
     68       4.9363      2.00000
     69       4.9796      2.00000
     70       4.9943      2.00000
     71       5.0995      2.00000
     72       5.1489      2.00000
     73       5.1828      2.00000
     74       5.2070      2.00000
     75       5.2931      2.00000
     76       5.3326      2.00000
     77       5.3667      2.00000
     78       5.3952      2.00000
     79       5.4516      2.00000
     80       5.4853      2.00000
     81       5.5540      2.00000
     82       5.5902      2.00001
     83       5.6452      2.00008
     84       5.6884      2.00028
     85       5.7256      2.00073
     86       5.7530      2.00142
     87       5.8130      2.00526
     88       5.8224      2.00633
     89       5.8681      2.01444
     90       5.9019      2.02432
     91       5.9224      2.03204
     92       5.9489      2.04362
     93       6.0058      2.06726
     94       6.0361      2.07056
     95       6.0535      2.06569
     96       6.0836      2.03938
     97       6.1062      1.99954
     98       6.1463      1.87446
     99       6.1651      1.78902
    100       6.2956      0.82141
    101       6.3465      0.43141
    102       6.4523     -0.01909
    103       6.4783     -0.05409
    104       6.5516     -0.06454
    105       6.5723     -0.05625
    106       6.6664     -0.01815
    107       6.7495     -0.00396
    108       6.8277     -0.00065
    109       7.1394     -0.00000
    110       7.2422     -0.00000
    111       7.2873     -0.00000
    112       7.3303     -0.00000
    113       7.4037     -0.00000
    114       7.8613     -0.00000
    115       7.9190     -0.00000
    116       7.9761     -0.00000
    117       8.0683     -0.00000
    118       8.0965     -0.00000
    119       8.1501     -0.00000
    120       8.1932     -0.00000


--------------------------------------------------------------------------------------------------------


 soft charge-density along one line, spin component           1
         0         1         2         3         4         5         6         7         8         9
 total charge-density along one line
 
 pseudopotential strength for first ion, spin component:           1
  5.546 -21.111   0.002   0.001  -0.000  -0.005  -0.002   0.001
-21.111   9.976   0.003   0.002  -0.001  -0.000  -0.000   0.000
  0.002   0.003 -10.633  -0.001   0.003   6.916   0.001  -0.004
  0.001   0.002  -0.001 -10.632  -0.006   0.001   6.915   0.007
 -0.000  -0.001   0.003  -0.006 -10.634  -0.004   0.007   6.917
 -0.005  -0.000   6.916   0.001  -0.004   7.360  -0.001   0.002
 -0.002  -0.000   0.001   6.915   0.007  -0.001   7.362  -0.004
  0.001   0.000  -0.004   0.007   6.917   0.002  -0.004   7.360
  0.002   0.001  -0.000  -0.000   0.002   0.001   0.000  -0.003
 -0.001  -0.000   0.001   0.002  -0.000  -0.001  -0.003   0.000
  0.001   0.000  -0.001   0.001   0.000   0.001  -0.001  -0.000
 -0.004  -0.002  -0.000  -0.000   0.001   0.000   0.001  -0.001
 -0.000  -0.000  -0.002   0.000  -0.000   0.002  -0.000   0.001
  0.003   0.001  -0.001  -0.000   0.002   0.001   0.001  -0.003
 -0.001  -0.000   0.001   0.003  -0.000  -0.002  -0.004   0.001
  0.001   0.001  -0.001   0.001   0.000   0.002  -0.002  -0.000
 -0.006  -0.002  -0.000  -0.001   0.001   0.001   0.001  -0.002
 -0.000  -0.000  -0.002   0.000  -0.000   0.003  -0.000   0.001
 total augmentation occupancy for first ion, spin component:           1
  1.996  -0.036  -0.000  -0.000   0.000  -0.000  -0.000   0.000   0.006  -0.004   0.001  -0.009  -0.001  -0.005   0.003  -0.001
 -0.036   1.518  -0.002  -0.001   0.003   0.002  -0.000  -0.004   0.015  -0.023  -0.017  -0.036  -0.004  -0.006   0.009   0.007
 -0.000  -0.002   1.998   0.000  -0.000  -0.025  -0.001   0.001   0.007  -0.005  -0.000   0.006  -0.003  -0.004   0.002   0.001
 -0.000  -0.001   0.000   1.998  -0.000  -0.001  -0.025   0.001   0.004  -0.001   0.001   0.007   0.001  -0.003   0.001  -0.001
  0.000   0.003  -0.000  -0.000   1.998   0.001   0.001  -0.025  -0.005   0.006  -0.001  -0.001   0.001   0.003  -0.003   0.000
 -0.000   0.002  -0.025  -0.001   0.001   0.065   0.001  -0.001  -0.006   0.005  -0.000  -0.005   0.002   0.003  -0.002   0.000
 -0.000  -0.000  -0.001  -0.025   0.001   0.001   0.065  -0.004  -0.000  -0.005  -0.003  -0.006   0.000   0.000   0.001   0.001
  0.000  -0.004   0.001   0.001  -0.025  -0.001  -0.004   0.065   0.003  -0.005   0.004  -0.001  -0.004  -0.001   0.002  -0.002
  0.006   0.015   0.007   0.004  -0.005  -0.006  -0.000   0.003   2.554  -0.244  -0.044  -0.018  -0.008  -0.951   0.108   0.017
 -0.004  -0.023  -0.005  -0.001   0.006   0.005  -0.005  -0.005  -0.244   2.575  -0.016   0.032   0.025   0.108  -0.955   0.006
  0.001  -0.017  -0.000   0.001  -0.001  -0.000  -0.003   0.004  -0.044  -0.016   2.341  -0.014   0.015   0.017   0.006  -0.953
 -0.009  -0.036   0.006   0.007  -0.001  -0.005  -0.006  -0.001  -0.018   0.032  -0.014   2.560  -0.030   0.005  -0.010   0.017
 -0.001  -0.004  -0.003   0.001   0.001   0.002   0.000  -0.004  -0.008   0.025   0.015  -0.030   2.351   0.002  -0.010  -0.008
 -0.005  -0.006  -0.004  -0.003   0.003   0.003   0.000  -0.001  -0.951   0.108   0.017   0.005   0.002   0.369  -0.047  -0.006
  0.003   0.009   0.002   0.001  -0.003  -0.002   0.001   0.002   0.108  -0.955   0.006  -0.010  -0.010  -0.047   0.370  -0.002
 -0.001   0.007   0.001  -0.001   0.000   0.000   0.001  -0.002   0.017   0.006  -0.953   0.017  -0.008  -0.006  -0.002   0.397
  0.008   0.036  -0.003  -0.004   0.001   0.002   0.003  -0.001   0.005  -0.010   0.016  -0.947   0.031  -0.002   0.004  -0.011
  0.001   0.005   0.003  -0.001  -0.000  -0.000  -0.000   0.003   0.002  -0.010  -0.008   0.032  -0.958  -0.000   0.004   0.004


------------------------ aborting loop because EDIFF is reached ----------------------------------------


    CHARGE:  cpu time    0.6296: real time    0.6301
    FORLOC:  cpu time    0.0064: real time    0.0065
    FORNL :  cpu time    3.8617: real time    3.8654
    STRESS:  cpu time   11.6233: real time   11.6343
    FORCOR:  cpu time    0.0288: real time    0.0288
    FORHAR:  cpu time    0.0115: real time    0.0115
    MIXING:  cpu time    0.0009: real time    0.0009
    OFIELD:  cpu time    0.0001: real time    0.0001

  FORCE on cell =-STRESS in cart. coord.  units (eV):
  Direction    XX          YY          ZZ          XY          YZ          ZX
  --------------------------------------------------------------------------------------
  Alpha Z  1173.46710  1173.46710  1173.46710
  Ewald   -3745.16558 -3432.45149 -4177.20160  -127.11364   439.39054   303.98695
  Hartree  1052.64408  1297.06064   644.36201  -107.96543   397.06813   298.49452
  E(xc)    -883.27373  -883.02892  -883.16843    -0.06917    -0.05049    -0.38262
  Local    -385.01740  -942.73110   455.44455   235.05345  -836.52398  -600.75980
  n-local  -280.15459  -280.36629  -280.04157     0.46362     0.14123     1.24547
  augment   332.06121   332.03128   331.84130    -0.00673    -0.00493    -0.30807
  Kinetic  2710.50684  2710.22848  2709.90955    -1.35721    -0.09140    -1.86053
  Fock        0.00000     0.00000     0.00000     0.00000     0.00000     0.00000
  -------------------------------------------------------------------------------------
  Total     -24.93207   -25.79029   -25.38708    -0.99511    -0.07089     0.41591
  in kB     -80.51238   -83.28379   -81.98171    -3.21348    -0.22892     1.34309
  external pressure =      -81.93 kB  Pullay stress =        0.00 kB


 VOLUME and BASIS-vectors are now :
 -----------------------------------------------------------------------------
  energy-cutoff  :      600.00
  volume of cell :      496.14
      direct lattice vectors                 reciprocal lattice vectors
    -3.210000000 -3.210000000 -3.210000000    -0.134994808 -0.124610592 -0.051921080
     1.605000000  1.605000000 -8.025000000     0.041536864  0.062305296 -0.103842160
     8.025000000 -8.025000000 -1.605000000     0.062305296 -0.062305296  0.000000000

  length of vectors
     5.559883092  8.339824638 11.461992628     0.190911488  0.128025213  0.088112995


 FORCES acting on ions
    electron-ion (+dipol)            ewald-force                    non-local-force                 convergence-correction
 -----------------------------------------------------------------------------------------------
   0.147E+03 0.402E+02 -.189E+03   -.147E+03 -.394E+02 0.189E+03   0.344E+00 -.227E+00 -.105E+00   0.181E+00 -.118E+00 0.873E-02
   -.790E+02 -.184E+03 0.109E+03   0.790E+02 0.184E+03 -.109E+03   0.660E-01 -.444E-01 -.213E+00   0.209E+00 -.171E+00 0.226E-01
   -.243E+02 0.792E+02 -.269E+02   0.242E+02 -.790E+02 0.270E+02   0.104E+00 0.571E-03 -.269E+00   -.143E+00 0.118E+00 0.140E-01
   -.594E+02 0.103E+03 -.780E+02   0.599E+02 -.103E+03 0.781E+02   -.548E-01 0.119E-01 -.165E+00   -.151E+00 0.110E+00 0.463E-01
   -.227E+02 -.107E+03 0.247E+03   0.227E+02 0.107E+03 -.247E+03   0.729E-01 0.310E+00 -.258E+00   -.147E+00 0.124E+00 0.255E-02
   0.344E+01 0.752E+02 -.270E+02   -.417E+01 -.750E+02 0.267E+02   0.331E+00 0.703E-01 -.121E-01   0.134E+00 -.263E-01 -.438E-01
   0.115E+02 0.468E+02 -.903E+02   -.114E+02 -.471E+02 0.903E+02   -.108E+00 -.195E+00 0.155E+00   -.186E-01 -.127E-01 0.132E-01
   -.160E+02 0.584E+01 0.125E+02   0.156E+02 -.597E+01 -.122E+02   -.253E+00 -.565E-01 0.236E+00   0.506E-01 -.668E-01 0.899E-02
   0.391E+02 -.490E+02 0.417E+02   -.392E+02 0.493E+02 -.415E+02   -.531E-01 0.479E-02 -.106E+00   0.185E-01 0.979E-02 -.744E-02
   -.817E+02 -.623E+02 0.105E+03   0.816E+02 0.625E+02 -.105E+03   0.238E+00 0.688E-01 -.184E+00   -.393E-01 0.711E-01 0.214E-02
   0.312E+02 0.909E+02 -.693E+02   -.312E+02 -.910E+02 0.697E+02   -.117E+00 -.183E+00 -.174E+00   0.230E-01 -.388E-01 -.418E-02
   0.371E+02 -.499E+02 0.842E+02   -.373E+02 0.502E+02 -.846E+02   0.274E+00 0.452E-02 -.261E+00   0.664E-01 -.743E-01 -.195E-01
   0.538E+02 0.363E+02 -.781E+02   -.536E+02 -.363E+02 0.781E+02   0.435E-01 -.455E+00 0.395E+00   -.356E-01 0.364E-01 -.887E-02
   0.514E+02 0.221E+02 -.129E+03   -.510E+02 -.221E+02 0.129E+03   -.101E+00 0.247E+00 0.861E-01   -.194E-01 0.465E-01 -.110E-01
   -.370E+02 -.354E+02 0.124E+02   0.367E+02 0.357E+02 -.124E+02   0.410E-01 0.165E+00 -.710E-01   0.122E-01 0.175E-02 -.790E-02
   0.302E+00 0.591E+02 -.442E+02   -.679E+00 -.591E+02 0.446E+02   -.337E+00 -.156E+00 0.372E+00   -.942E-02 0.252E-02 0.205E-01
   0.980E+02 0.465E+02 -.957E+02   -.984E+02 -.466E+02 0.962E+02   -.376E+00 -.600E-01 0.876E-01   -.318E-01 0.366E-01 -.219E-01
   -.525E+01 0.516E+01 -.365E+01   0.543E+01 -.516E+01 0.323E+01   0.104E+00 -.259E+00 0.146E+00   0.322E-01 -.426E-01 0.184E-01
   -.163E+02 0.457E+02 -.631E+02   0.164E+02 -.455E+02 0.633E+02   -.136E+00 0.705E-01 0.198E+00   0.282E-01 -.904E-02 -.603E-02
   0.297E+02 0.914E+01 -.370E+02   -.292E+02 -.940E+01 0.371E+02   0.285E-01 -.174E+00 0.828E-01   0.427E-01 -.475E-01 -.160E-01
   -.532E+02 -.170E+02 0.923E+02   0.534E+02 0.167E+02 -.925E+02   -.187E+00 0.693E-01 -.992E-01   -.372E-01 0.297E-01 -.142E-01
   -.672E+01 -.828E+01 0.200E+02   0.665E+01 0.821E+01 -.202E+02   -.220E+00 0.575E-01 -.469E-01   -.320E-01 0.163E-01 0.655E-02
   -.269E+02 -.237E+02 0.748E+02   0.266E+02 0.237E+02 -.743E+02   0.834E-01 -.400E-01 0.295E-01   0.626E-02 -.376E-01 0.181E-01
   0.432E+01 -.527E+01 0.538E+02   -.392E+01 0.503E+01 -.544E+02   0.211E+00 0.105E+00 -.242E+00   0.297E-02 -.561E-02 -.494E-03
   -.222E+02 -.349E+02 0.458E+02   0.222E+02 0.345E+02 -.457E+02   0.192E+00 -.534E-02 0.384E+00   -.395E-01 0.378E-01 0.130E-01
   -.805E+02 -.335E+02 0.883E+02   0.811E+02 0.336E+02 -.889E+02   -.791E-01 0.814E-01 0.150E+00   0.217E-01 -.376E-01 0.315E-01
   -.189E+02 -.738E+02 0.590E+02   0.189E+02 0.740E+02 -.591E+02   0.908E-01 0.236E-01 -.261E-01   -.590E-01 0.587E-01 0.918E-02
   -.184E+02 0.269E+02 -.345E+02   0.185E+02 -.274E+02 0.342E+02   0.129E-01 0.922E-01 -.142E+00   0.323E-01 -.270E-01 -.266E-01
   0.466E+02 0.333E+02 -.846E+02   -.468E+02 -.334E+02 0.849E+02   -.602E-01 -.144E+00 0.178E+00   -.268E-01 0.336E-01 0.346E-02
   0.148E+02 -.409E+02 0.482E+01   -.147E+02 0.410E+02 -.486E+01   0.119E+00 0.542E-01 -.103E+00   -.161E-02 -.526E-03 -.167E-01
 -----------------------------------------------------------------------------------------------
   -.326E+00 0.538E+00 -.432E-01   -.107E-13 -.213E-13 0.171E-12   0.273E+00 -.564E+00 0.220E-01   0.696E-01 0.181E-01 0.346E-01
 
 
 POSITION                                       TOTAL-FORCE (eV/Angst)
 -----------------------------------------------------------------------------------
      1.60500     -4.81500    -11.23500         0.006336      0.446315      0.241429
      1.60500     -4.81500     -4.81500         0.265764     -0.094592      0.002280
     -1.60500     -1.60500     -1.60500        -0.130176      0.318816     -0.161370
      0.00000      0.00000      0.00000         0.248620     -0.016492     -0.008904
      6.42000     -6.42000     -3.21000        -0.055762      0.607157     -0.424037
      4.81500     -4.81500     -1.60500        -0.267812      0.232459     -0.310396
      0.00000     -3.21000     -9.63000         0.028254     -0.508086      0.145042
      1.60500     -4.81500     -8.02500        -0.592146     -0.251648      0.584085
      0.00000     -3.21000     -6.42000        -0.126161      0.301509      0.030228
     -1.60500     -1.60500     -4.81500         0.170932      0.409101     -0.538880
      4.81500     -4.81500     -8.02500        -0.095727     -0.315929      0.248847
      3.21000     -3.21000     -3.21000         0.143817      0.179157     -0.608925
     -1.60500     -1.60500     -8.02500         0.177217     -0.433177      0.383583
      4.81500     -8.02500    -11.23500         0.281546      0.313565     -0.105454
     -0.00000     -3.21000     -3.21000        -0.313875      0.452638     -0.121310
      1.60500     -1.60500     -8.02500        -0.724055     -0.146268      0.742296
      6.42000     -6.42000     -9.63000        -0.779269     -0.090235      0.611907
      3.21000     -3.21000     -6.42000         0.318797     -0.299107     -0.261975
      3.21000     -6.42000     -9.63000         0.060999      0.234437      0.444311
      3.21000     -3.21000     -9.63000         0.525740     -0.477285      0.145951
     -0.00000     -0.00000     -3.21000        -0.027911     -0.173781     -0.368709
      6.42000     -6.42000     -6.42000        -0.319375     -0.000951     -0.293465
      4.81500     -4.81500     -4.81500        -0.265920     -0.036901      0.518538
      1.60500     -1.60500     -1.60500         0.615768     -0.146060     -0.799722
      4.81500     -8.02500     -8.02500         0.101982     -0.389606      0.527028
      3.21000     -6.42000     -6.42000         0.506033      0.168920     -0.394893
      4.81500     -8.02500     -4.81500         0.021352      0.194890     -0.151584
      3.21000     -6.42000     -3.21000         0.189491     -0.454229     -0.439204
      0.00000      0.00000     -6.42000        -0.229232     -0.222532      0.526250
      1.60500     -1.60500     -4.81500         0.264771      0.197915     -0.162947
 -----------------------------------------------------------------------------------
    total drift:                                0.016349     -0.007553      0.013475


--------------------------------------------------------------------------------------------------------



  FREE ENERGIE OF THE ION-ELECTRON SYSTEM (eV)
  ---------------------------------------------------
  free  energy   TOTEN  =      -318.23716012 eV

  energy  without entropy=     -318.22607677  energy(sigma->0) =     -318.23346567
 


--------------------------------------------------------------------------------------------------------


    POTLOK:  cpu time    0.0276: real time    0.0276


--------------------------------------------------------------------------------------------------------


 stress matrix after NEB project (eV)
    -24.93207     -0.99511      0.41591
     -0.99511    -25.79029     -0.07089
      0.41591     -0.07089    -25.38708
  FORCES: max atom, RMS     1.047212    0.610208
  FORCE total and by dimension    3.342247    0.799722
  Stress total and by dimension   43.972582   25.790293
 writing wavefunctions
     LOOP+:  cpu time  149.1319: real time  154.0658
    4ORBIT:  cpu time    0.0000: real time    0.0000

 total amount of memory used by VASP MPI-rank0   109556. kBytes
=======================================================================

   base      :      30000. kBytes
   nonlr-proj:       6996. kBytes
   fftplans  :       2332. kBytes
   grid      :       4665. kBytes
   one-center:        124. kBytes
   wavefun   :      65439. kBytes
 
  
  
 General timing and accounting informations for this job:
 ========================================================
  
                  Total CPU time used (sec):      160.156
                            User time (sec):      157.472
                          System time (sec):        2.683
                         Elapsed time (sec):      168.267
  
                   Maximum memory used (kb):      151428.
                   Average memory used (kb):           0.
  
                          Minor page faults:        31340
                          Major page faults:            0
                 Voluntary context switches:         1644
