 running on   32 total cores
 distrk:  each k-point on   32 cores,    1 groups
 distr:  one band on    4 cores,    8 groups
 using from now: INCAR     
 vasp.5.4.4.18Apr17-6-g9f103f2a35 (build Aug 09 2018 16:20:53) complex          
  
 POSCAR found type information on POSCAR  Nb Mo Ta Ti V 
 POSCAR found :  5 types and      30 ions
 scaLAPACK will be used

 ----------------------------------------------------------------------------- 
|                                                                             |
|  ADVICE TO THIS USER RUNNING 'VASP/VAMP'   (HEAR YOUR MASTER'S VOICE ...):  |
|                                                                             |
|      You enforced a specific xc-type in the INCAR file,                     |
|      a different type was found on the POTCAR file                          |
|          I HOPE YOU KNOW, WHAT YOU ARE  DOING                               |
|                                                                             |
 ----------------------------------------------------------------------------- 

 LDA part: xc-table for Pade appr. of Perdew
 POSCAR found type information on POSCAR  Nb Mo Ta Ti V 
 POSCAR found :  5 types and      30 ions
 found WAVECAR, reading the header
 POSCAR, INCAR and KPOINTS ok, starting setup
 FFT: planning ...
 reading WAVECAR
 the WAVECAR file was read successfully
 charge-density read from file: Nb                                      
 entering main loop
       N       E                     dE             d eps       ncg     rms          rms(c)
DAV:   1    -0.318304379897E+03   -0.31830E+03   -0.13477E-02 25392   0.437E-01    0.115E-01
DAV:   2    -0.318238672650E+03    0.65707E-01   -0.20641E-02 24440   0.579E-01    0.364E-01
DAV:   3    -0.318237177517E+03    0.14951E-02   -0.81194E-03 23096   0.359E-01    0.637E-02
DAV:   4    -0.318237248199E+03   -0.70682E-04   -0.12526E-03 19408   0.148E-01    0.109E-01
DAV:   5    -0.318237160122E+03    0.88077E-04   -0.61093E-04 15408   0.121E-01
   1 F= -.31823716E+03 E0= -.31823347E+03  d E =-.110834E-01
 writing wavefunctions
VASP is done!
