<?xml version="1.0" encoding="ISO-8859-1"?>
<modeling>
 <generator>
  <i name="program" type="string">vasp </i>
  <i name="version" type="string">5.4.4.18Apr17-6-g9f103f2a35  </i>
  <i name="subversion" type="string">(build Aug 09 2018 16:20:53) complex            parallel </i>
  <i name="platform" type="string">LinuxIFC </i>
  <i name="date" type="string">2020 04 28 </i>
  <i name="time" type="string">21:30:14 </i>
 </generator>
 <incar>
  <i type="string" name="SYSTEM"> Nb - Mo - Ta - Ti - V SQS</i>
  <i type="string" name="PREC">normal</i>
  <i type="int" name="ICHARG">     1</i>
  <i type="int" name="NELM">   100</i>
  <i type="int" name="IBRION">     2</i>
  <i name="ENCUT">    600.00000000</i>
  <i type="string" name="LREAL"> Auto</i>
  <i type="int" name="ISMEAR">     1</i>
  <i name="SIGMA">      0.20000000</i>
  <v type="int" name="KPOINT_BSE">    -1     0     0     0</v>
  <i type="int" name="NELM">   100</i>
  <i type="string" name="GGA"> PS</i>
 </incar>
 <structure name="primitive_cell" >
  <crystal>
   <varray name="basis" >
    <v>      -3.21000000      -3.21000000      -3.21000000 </v>
    <v>       1.60500000       1.60500000      -8.02500000 </v>
    <v>       8.02500000      -8.02500000      -1.60500000 </v>
   </varray>
   <i name="volume">    496.14241500 </i>
   <varray name="rec_basis" >
    <v>      -0.13499481      -0.12461059      -0.05192108 </v>
    <v>       0.04153686       0.06230530      -0.10384216 </v>
    <v>       0.06230530      -0.06230530       0.00000000 </v>
   </varray>
  </crystal>
  <varray name="positions" >
   <v>      -0.03333333      -0.06666667       0.40000000 </v>
   <v>       0.30000000      -0.40000000       0.40000000 </v>
   <v>      -0.10000000      -0.20000000       0.20000000 </v>
   <v>       0.06666667       0.13333333       0.20000000 </v>
   <v>       0.46666667      -0.06666667       0.40000000 </v>
   <v>      -0.13333333      -0.26666667      -0.40000000 </v>
   <v>       0.03333333       0.06666667      -0.40000000 </v>
   <v>      -0.36666667       0.26666667       0.40000000 </v>
   <v>       0.40000000      -0.20000000       0.20000000 </v>
   <v>      -0.20000000      -0.40000000       0.40000000 </v>
   <v>      -0.43333333       0.13333333       0.20000000 </v>
   <v>       0.36666667      -0.26666667      -0.40000000 </v>
   <v>       0.13333333       0.26666667       0.40000000 </v>
   <v>      -0.46666667       0.06666667      -0.40000000 </v>
   <v>       0.23333333       0.46666667       0.20000000 </v>
   <v>       0.20000000       0.40000000      -0.40000000 </v>
   <v>       0.00000000       0.00000000       0.00000000 </v>
   <v>      -0.06666667      -0.13333333      -0.20000000 </v>
   <v>      -0.30000000       0.40000000      -0.40000000 </v>
   <v>      -0.26666667       0.46666667       0.20000000 </v>
   <v>       0.33333333      -0.33333333       0.00000000 </v>
   <v>       0.43333333      -0.13333333      -0.20000000 </v>
   <v>      -0.50000000       0.00000000       0.00000000 </v>
   <v>       0.26666667      -0.46666667      -0.20000000 </v>
   <v>      -0.33333333       0.33333333       0.00000000 </v>
   <v>      -0.40000000       0.20000000      -0.20000000 </v>
   <v>      -0.16666667      -0.33333333       0.00000000 </v>
   <v>      -0.23333333      -0.46666667      -0.20000000 </v>
   <v>       0.16666667       0.33333333       0.00000000 </v>
   <v>       0.10000000       0.20000000      -0.20000000 </v>
  </varray>
 </structure>
 <varray name="primitive_index" >
  <v type="int" >        1 </v>
  <v type="int" >       18 </v>
  <v type="int" >        7 </v>
  <v type="int" >       24 </v>
  <v type="int" >       20 </v>
  <v type="int" >       19 </v>
  <v type="int" >        6 </v>
  <v type="int" >        2 </v>
  <v type="int" >       16 </v>
  <v type="int" >        8 </v>
  <v type="int" >       15 </v>
  <v type="int" >       11 </v>
  <v type="int" >       12 </v>
  <v type="int" >       28 </v>
  <v type="int" >       30 </v>
  <v type="int" >       23 </v>
  <v type="int" >        4 </v>
  <v type="int" >       14 </v>
  <v type="int" >       26 </v>
  <v type="int" >        9 </v>
  <v type="int" >       29 </v>
  <v type="int" >       17 </v>
  <v type="int" >        3 </v>
  <v type="int" >       22 </v>
  <v type="int" >       10 </v>
  <v type="int" >       27 </v>
  <v type="int" >       13 </v>
  <v type="int" >       25 </v>
  <v type="int" >       21 </v>
  <v type="int" >        5 </v>
 </varray>
 <kpoints>
  <generation param="Gamma">
   <v type="int" name="divisions">       5        5        5 </v>
   <v name="usershift">      0.00000000       0.00000000       0.00000000 </v>
   <v name="genvec1">      0.20000000      -0.00000000      -0.00000000 </v>
   <v name="genvec2">      0.00000000       0.20000000       0.00000000 </v>
   <v name="genvec3">      0.00000000       0.00000000       0.20000000 </v>
   <v name="shift">      0.00000000       0.00000000       0.00000000 </v>
  </generation>
  <varray name="kpointlist" >
   <v>       0.00000000       0.00000000       0.00000000 </v>
   <v>       0.20000000      -0.00000000       0.00000000 </v>
   <v>       0.40000000      -0.00000000       0.00000000 </v>
   <v>       0.00000000       0.20000000      -0.00000000 </v>
   <v>       0.20000000       0.20000000      -0.00000000 </v>
   <v>       0.40000000       0.20000000       0.00000000 </v>
   <v>      -0.40000000       0.20000000       0.00000000 </v>
   <v>      -0.20000000       0.20000000      -0.00000000 </v>
   <v>       0.00000000       0.40000000      -0.00000000 </v>
   <v>       0.20000000       0.40000000      -0.00000000 </v>
   <v>       0.40000000       0.40000000      -0.00000000 </v>
   <v>      -0.40000000       0.40000000      -0.00000000 </v>
   <v>      -0.20000000       0.40000000       0.00000000 </v>
   <v>       0.00000000       0.00000000       0.20000000 </v>
   <v>       0.20000000      -0.00000000       0.20000000 </v>
   <v>       0.40000000      -0.00000000       0.20000000 </v>
   <v>      -0.40000000       0.00000000       0.20000000 </v>
   <v>      -0.20000000       0.00000000       0.20000000 </v>
   <v>      -0.00000000       0.20000000       0.20000000 </v>
   <v>       0.20000000       0.20000000       0.20000000 </v>
   <v>       0.40000000       0.20000000       0.20000000 </v>
   <v>      -0.40000000       0.20000000       0.20000000 </v>
   <v>      -0.20000000       0.20000000       0.20000000 </v>
   <v>       0.00000000       0.40000000       0.20000000 </v>
   <v>       0.20000000       0.40000000       0.20000000 </v>
   <v>       0.40000000       0.40000000       0.20000000 </v>
   <v>      -0.40000000       0.40000000       0.20000000 </v>
   <v>      -0.20000000       0.40000000       0.20000000 </v>
   <v>       0.00000000      -0.40000000       0.20000000 </v>
   <v>       0.20000000      -0.40000000       0.20000000 </v>
   <v>       0.40000000      -0.40000000       0.20000000 </v>
   <v>      -0.40000000      -0.40000000       0.20000000 </v>
   <v>      -0.20000000      -0.40000000       0.20000000 </v>
   <v>       0.00000000      -0.20000000       0.20000000 </v>
   <v>       0.20000000      -0.20000000       0.20000000 </v>
   <v>       0.40000000      -0.20000000       0.20000000 </v>
   <v>      -0.40000000      -0.20000000       0.20000000 </v>
   <v>      -0.20000000      -0.20000000       0.20000000 </v>
   <v>       0.00000000       0.00000000       0.40000000 </v>
   <v>       0.20000000      -0.00000000       0.40000000 </v>
   <v>       0.40000000      -0.00000000       0.40000000 </v>
   <v>      -0.40000000       0.00000000       0.40000000 </v>
   <v>      -0.20000000       0.00000000       0.40000000 </v>
   <v>       0.00000000       0.20000000       0.40000000 </v>
   <v>       0.20000000       0.20000000       0.40000000 </v>
   <v>       0.40000000       0.20000000       0.40000000 </v>
   <v>      -0.40000000       0.20000000       0.40000000 </v>
   <v>      -0.20000000       0.20000000       0.40000000 </v>
   <v>      -0.00000000       0.40000000       0.40000000 </v>
   <v>       0.20000000       0.40000000       0.40000000 </v>
   <v>       0.40000000       0.40000000       0.40000000 </v>
   <v>      -0.40000000       0.40000000       0.40000000 </v>
   <v>      -0.20000000       0.40000000       0.40000000 </v>
   <v>       0.00000000      -0.40000000       0.40000000 </v>
   <v>       0.20000000      -0.40000000       0.40000000 </v>
   <v>       0.40000000      -0.40000000       0.40000000 </v>
   <v>      -0.40000000      -0.40000000       0.40000000 </v>
   <v>      -0.20000000      -0.40000000       0.40000000 </v>
   <v>       0.00000000      -0.20000000       0.40000000 </v>
   <v>       0.20000000      -0.20000000       0.40000000 </v>
   <v>       0.40000000      -0.20000000       0.40000000 </v>
   <v>      -0.40000000      -0.20000000       0.40000000 </v>
   <v>      -0.20000000      -0.20000000       0.40000000 </v>
  </varray>
  <varray name="weights" >
   <v>       0.00800000 </v>
   <v>       0.01600000 </v>
   <v>       0.01600000 </v>
   <v>       0.01600000 </v>
   <v>       0.01600000 </v>
   <v>       0.01600000 </v>
   <v>       0.01600000 </v>
   <v>       0.01600000 </v>
   <v>       0.01600000 </v>
   <v>       0.01600000 </v>
   <v>       0.01600000 </v>
   <v>       0.01600000 </v>
   <v>       0.01600000 </v>
   <v>       0.01600000 </v>
   <v>       0.01600000 </v>
   <v>       0.01600000 </v>
   <v>       0.01600000 </v>
   <v>       0.01600000 </v>
   <v>       0.01600000 </v>
   <v>       0.01600000 </v>
   <v>       0.01600000 </v>
   <v>       0.01600000 </v>
   <v>       0.01600000 </v>
   <v>       0.01600000 </v>
   <v>       0.01600000 </v>
   <v>       0.01600000 </v>
   <v>       0.01600000 </v>
   <v>       0.01600000 </v>
   <v>       0.01600000 </v>
   <v>       0.01600000 </v>
   <v>       0.01600000 </v>
   <v>       0.01600000 </v>
   <v>       0.01600000 </v>
   <v>       0.01600000 </v>
   <v>       0.01600000 </v>
   <v>       0.01600000 </v>
   <v>       0.01600000 </v>
   <v>       0.01600000 </v>
   <v>       0.01600000 </v>
   <v>       0.01600000 </v>
   <v>       0.01600000 </v>
   <v>       0.01600000 </v>
   <v>       0.01600000 </v>
   <v>       0.01600000 </v>
   <v>       0.01600000 </v>
   <v>       0.01600000 </v>
   <v>       0.01600000 </v>
   <v>       0.01600000 </v>
   <v>       0.01600000 </v>
   <v>       0.01600000 </v>
   <v>       0.01600000 </v>
   <v>       0.01600000 </v>
   <v>       0.01600000 </v>
   <v>       0.01600000 </v>
   <v>       0.01600000 </v>
   <v>       0.01600000 </v>
   <v>       0.01600000 </v>
   <v>       0.01600000 </v>
   <v>       0.01600000 </v>
   <v>       0.01600000 </v>
   <v>       0.01600000 </v>
   <v>       0.01600000 </v>
   <v>       0.01600000 </v>
  </varray>
 </kpoints>
 <parameters>
  <separator name="general" >
   <i type="string" name="SYSTEM">Nb - Mo - Ta - Ti - V SQS</i>
   <i type="logical" name="LCOMPAT"> F  </i>
  </separator>
  <separator name="electronic" >
   <i type="string" name="PREC">normal</i>
   <i name="ENMAX">    600.00000000</i>
   <i name="ENAUG">    455.65900000</i>
   <i name="EDIFF">      0.00010000</i>
   <i type="int" name="IALGO">    38</i>
   <i type="int" name="IWAVPR">    10</i>
   <i type="int" name="NBANDS">   120</i>
   <i name="NELECT">    198.00000000</i>
   <i type="int" name="TURBO">     0</i>
   <i type="int" name="IRESTART">     0</i>
   <i type="int" name="NREBOOT">     0</i>
   <i type="int" name="NMIN">     0</i>
   <i name="EREF">      0.00000000</i>
   <separator name="electronic smearing" >
    <i type="int" name="ISMEAR">     1</i>
    <i name="SIGMA">      0.20000000</i>
    <i name="KSPACING">      0.50000000</i>
    <i type="logical" name="KGAMMA"> T  </i>
   </separator>
   <separator name="electronic projectors" >
    <i type="logical" name="LREAL"> T  </i>
    <v name="ROPT">     -0.00050000     -0.00050000     -0.00050000     -0.00050000     -0.00050000</v>
    <i type="int" name="LMAXPAW">  -100</i>
    <i type="int" name="LMAXMIX">     2</i>
    <i type="logical" name="NLSPLINE"> F  </i>
   </separator>
   <separator name="electronic startup" >
    <i type="int" name="ISTART">     1</i>
    <i type="int" name="ICHARG">     1</i>
    <i type="int" name="INIWAV">     1</i>
   </separator>
   <separator name="electronic spin" >
    <i type="int" name="ISPIN">     1</i>
    <i type="logical" name="LNONCOLLINEAR"> F  </i>
    <v name="MAGMOM">      1.00000000      1.00000000      1.00000000      1.00000000      1.00000000      1.00000000      1.00000000      1.00000000      1.00000000      1.00000000      1.00000000      1.00000000      1.00000000      1.00000000      1.00000000      1.00000000      1.00000000      1.00000000      1.00000000      1.00000000
      1.00000000      1.00000000      1.00000000      1.00000000      1.00000000      1.00000000      1.00000000      1.00000000      1.00000000      1.00000000</v>
    <i name="NUPDOWN">     -1.00000000</i>
    <i type="logical" name="LSORBIT"> F  </i>
    <v name="SAXIS">      0.00000000      0.00000000      1.00000000</v>
    <i type="logical" name="LSPIRAL"> F  </i>
    <v name="QSPIRAL">      0.00000000      0.00000000      0.00000000</v>
    <i type="logical" name="LZEROZ"> F  </i>
   </separator>
   <separator name="electronic exchange-correlation" >
    <i type="logical" name="LASPH"> F  </i>
    <i type="logical" name="LMETAGGA"> F  </i>
   </separator>
   <separator name="electronic convergence" >
    <i type="int" name="NELM">   100</i>
    <i type="int" name="NELMDL">     0</i>
    <i type="int" name="NELMIN">     2</i>
    <i name="ENINI">    600.00000000</i>
    <separator name="electronic convergence detail" >
     <i type="logical" name="LDIAG"> T  </i>
     <i type="logical" name="LSUBROT"> F  </i>
     <i name="WEIMIN">      0.00000000</i>
     <i name="EBREAK">      0.00000021</i>
     <i name="DEPER">      0.30000000</i>
     <i type="int" name="NRMM">     4</i>
     <i name="TIME">      0.40000000</i>
    </separator>
   </separator>
   <separator name="electronic mixer" >
    <i name="AMIX">      0.40000000</i>
    <i name="BMIX">      1.00000000</i>
    <i name="AMIN">      0.10000000</i>
    <i name="AMIX_MAG">      1.60000000</i>
    <i name="BMIX_MAG">      1.00000000</i>
    <separator name="electronic mixer details" >
     <i type="int" name="IMIX">     4</i>
     <i type="logical" name="MIXFIRST"> F  </i>
     <i type="int" name="MAXMIX">   -45</i>
     <i name="WC">    100.00000000</i>
     <i type="int" name="INIMIX">     1</i>
     <i type="int" name="MIXPRE">     1</i>
     <i type="int" name="MREMOVE">     5</i>
    </separator>
   </separator>
   <separator name="electronic dipolcorrection" >
    <i type="logical" name="LDIPOL"> F  </i>
    <i type="logical" name="LMONO"> F  </i>
    <i type="int" name="IDIPOL">     0</i>
    <i name="EPSILON">      1.00000000</i>
    <v name="DIPOL">   -100.00000000   -100.00000000   -100.00000000</v>
    <i name="EFIELD">      0.00000000</i>
   </separator>
  </separator>
  <separator name="grids" >
   <i type="int" name="NGX">    36</i>
   <i type="int" name="NGY">    50</i>
   <i type="int" name="NGZ">    70</i>
   <i type="int" name="NGXF">    72</i>
   <i type="int" name="NGYF">   100</i>
   <i type="int" name="NGZF">   140</i>
   <i type="logical" name="ADDGRID"> F  </i>
  </separator>
  <separator name="ionic" >
   <i type="int" name="NSW">     0</i>
   <i type="int" name="IBRION">    -1</i>
   <i type="int" name="MDALGO">     0</i>
   <i type="int" name="ISIF">     2</i>
   <i name="PSTRESS">      0.00000000</i>
   <i name="EDIFFG">      0.00100000</i>
   <i type="int" name="NFREE">     1</i>
   <i name="POTIM">      0.50000000</i>
   <i name="SMASS">     -3.00000000</i>
   <i name="SCALEE">      1.00000000</i>
  </separator>
  <separator name="ionic md" >
   <i name="TEBEG">      0.00010000</i>
   <i name="TEEND">      0.00010000</i>
   <i type="int" name="NBLOCK">     1</i>
   <i type="int" name="KBLOCK">     1</i>
   <i type="int" name="NPACO">   256</i>
   <i name="APACO">     16.00000000</i>
  </separator>
  <separator name="symmetry" >
   <i type="int" name="ISYM">     2</i>
   <i name="SYMPREC">      0.00001000</i>
  </separator>
  <separator name="dos" >
   <i type="int" name="LORBIT">     0</i>
   <v name="RWIGS">     -1.00000000     -1.00000000     -1.00000000     -1.00000000     -1.00000000</v>
   <i type="int" name="NEDOS">   301</i>
   <i name="EMIN">     10.00000000</i>
   <i name="EMAX">    -10.00000000</i>
   <i name="EFERMI">      0.00000000</i>
  </separator>
  <separator name="writing" >
   <i type="int" name="NWRITE">     2</i>
   <i type="logical" name="LWAVE"> T  </i>
   <i type="logical" name="LDOWNSAMPLE"> F  </i>
   <i type="logical" name="LCHARG"> T  </i>
   <i type="logical" name="LPARD"> F  </i>
   <i type="logical" name="LVTOT"> F  </i>
   <i type="logical" name="LVHAR"> F  </i>
   <i type="logical" name="LELF"> F  </i>
   <i type="logical" name="LOPTICS"> F  </i>
   <v name="STM">      0.00000000      0.00000000      0.00000000      0.00000000      0.00000000      0.00000000      0.00000000</v>
  </separator>
  <separator name="performance" >
   <i type="int" name="NPAR">     8</i>
   <i type="int" name="NSIM">     4</i>
   <i type="int" name="NBLK">    -1</i>
   <i type="logical" name="LPLANE"> T  </i>
   <i type="logical" name="LSCALAPACK"> T  </i>
   <i type="logical" name="LSCAAWARE"> F  </i>
   <i type="logical" name="LSCALU"> F  </i>
   <i type="logical" name="LASYNC"> F  </i>
   <i type="logical" name="LORBITALREAL"> F  </i>
  </separator>
  <separator name="miscellaneous" >
   <i type="int" name="IDIOT">     3</i>
   <i type="int" name="ISPECIAL">     0</i>
   <i type="logical" name="LMUSIC"> F  </i>
   <v name="POMASS">     92.91000000     95.94000000    180.94800000     47.88000000     50.94100000</v>
   <v name="DARWINR">      0.00000000      0.00000000      0.00000000      0.00000000      0.00000000</v>
   <v name="DARWINV">      1.00000000      1.00000000      1.00000000      1.00000000      1.00000000</v>
   <i type="logical" name="LCORR"> T  </i>
  </separator>
  <i type="logical" name="GGA_COMPAT"> T  </i>
  <i type="logical" name="LBERRY"> F  </i>
  <i type="int" name="ICORELEVEL">     0</i>
  <i type="logical" name="LDAU"> F  </i>
  <i type="int" name="I_CONSTRAINED_M">     0</i>
  <separator name="electronic exchange-correlation" >
   <i type="string" name="GGA">PS</i>
   <i type="int" name="VOSKOWN">     0</i>
   <i type="logical" name="LHFCALC"> F  </i>
   <i type="string" name="PRECFOCK"></i>
   <i type="logical" name="LSYMGRAD"> F  </i>
   <i type="logical" name="LHFONE"> F  </i>
   <i type="logical" name="LRHFCALC"> F  </i>
   <i type="logical" name="LTHOMAS"> F  </i>
   <i type="logical" name="LMODELHF"> F  </i>
   <i name="ENCUT4O">     -1.00000000</i>
   <i type="int" name="EXXOEP">     0</i>
   <i type="int" name="FOURORBIT">     0</i>
   <i name="AEXX">      0.00000000</i>
   <i name="HFALPHA">      0.00000000</i>
   <i name="MCALPHA">      0.00000000</i>
   <i name="ALDAX">      1.00000000</i>
   <i name="AGGAX">      1.00000000</i>
   <i name="ALDAC">      1.00000000</i>
   <i name="AGGAC">      1.00000000</i>
   <i type="int" name="NKREDX">     1</i>
   <i type="int" name="NKREDY">     1</i>
   <i type="int" name="NKREDZ">     1</i>
   <i type="logical" name="SHIFTRED"> F  </i>
   <i type="logical" name="ODDONLY"> F  </i>
   <i type="logical" name="EVENONLY"> F  </i>
   <i type="int" name="LMAXFOCK">     0</i>
   <i type="int" name="NMAXFOCKAE">     0</i>
   <i type="logical" name="LFOCKAEDFT"> F  </i>
   <i name="HFSCREEN">      0.00000000</i>
   <i name="HFSCREENC">      0.00000000</i>
   <i type="int" name="NBANDSGWLOW">     0</i>
  </separator>
  <separator name="vdW DFT" >
   <i type="logical" name="LUSE_VDW"> F  </i>
   <i name="Zab_VDW">     -0.84910000</i>
   <i name="PARAM1">      0.12340000</i>
   <i name="PARAM2">      1.00000000</i>
   <i name="PARAM3">      0.00000000</i>
  </separator>
  <separator name="model GW" >
   <i type="int" name="MODEL_GW">     0</i>
   <i name="MODEL_EPS0">      9.92284830</i>
   <i name="MODEL_ALPHA">      1.00000000</i>
  </separator>
  <separator name="linear response parameters" >
   <i type="logical" name="LEPSILON"> F  </i>
   <i type="logical" name="LRPA"> F  </i>
   <i type="logical" name="LNABLA"> F  </i>
   <i type="logical" name="LVEL"> F  </i>
   <i type="int" name="KINTER">     0</i>
   <i name="CSHIFT">      0.10000000</i>
   <i name="OMEGAMAX">     -1.00000000</i>
   <i name="DEG_THRESHOLD">      0.00200000</i>
   <i name="RTIME">     -0.10000000</i>
   <i name="WPLASMAI">      0.00000000</i>
   <v name="DFIELD">      0.00000000      0.00000000      0.00000000</v>
   <v name="WPLASMA">      0.00000000      0.00000000      0.00000000      0.00000000      0.00000000      0.00000000      0.00000000      0.00000000      0.00000000</v>
  </separator>
  <separator name="orbital magnetization" >
   <i type="logical" name="NUCIND"> F  </i>
   <v name="MAGPOS">      0.00000000      0.00000000      0.00000000</v>
   <i type="logical" name="LNICSALL"> T  </i>
   <i type="logical" name="ORBITALMAG"> F  </i>
   <i type="logical" name="LMAGBLOCH"> F  </i>
   <i type="logical" name="LCHIMAG"> F  </i>
   <i type="logical" name="LGAUGE"> T  </i>
   <i type="int" name="MAGATOM">     0</i>
   <v name="MAGDIPOL">      0.00000000      0.00000000      0.00000000</v>
   <v name="AVECCONST">      0.00000000      0.00000000      0.00000000</v>
  </separator>
  <separator name="response functions" >
   <i type="logical" name="LADDER"> F  </i>
   <i type="logical" name="LRPAFORCE"> F  </i>
   <i type="logical" name="LFXC"> F  </i>
   <i type="logical" name="LHARTREE"> T  </i>
   <i type="int" name="IBSE">     0</i>
   <v type="int" name="KPOINT">    -1     0     0     0</v>
   <i type="logical" name="LTCTE"> F  </i>
   <i type="logical" name="LTETE"> F  </i>
   <i type="logical" name="LTRIPLET"> F  </i>
   <i type="logical" name="LFXCEPS"> F  </i>
   <i type="logical" name="LFXHEG"> F  </i>
   <i type="int" name="NATURALO">     2</i>
   <i type="logical" name="L2ORDER"> F  </i>
   <i type="logical" name="LMP2LT"> F  </i>
   <i type="logical" name="LUSEW"> F  </i>
   <i name="ENCUTGW">     -2.00000000</i>
   <i name="ENCUTGWSOFT">     -2.00000000</i>
   <i name="ENCUTLF">     -1.00000000</i>
   <i type="int" name="LMAXMP2">    -1</i>
   <i name="SCISSOR">      0.00000000</i>
   <i type="int" name="NOMEGA">     0</i>
   <i type="int" name="NOMEGAR">     0</i>
   <i type="int" name="NBANDSGW">    -1</i>
   <i type="int" name="NBANDSO">    -1</i>
   <i type="int" name="NBANDSV">    -1</i>
   <i type="int" name="NELM">   100</i>
   <i type="int" name="NELMHF">     1</i>
   <i type="int" name="DIM">     3</i>
   <i type="int" name="ANTIRES">     0</i>
   <i name="OMEGAMAX">    -30.00000000</i>
   <i name="OMEGAMIN">    -30.00000000</i>
   <i name="OMEGATL">   -200.00000000</i>
   <i type="int" name="OMEGAGRID">   140</i>
   <i name="CSHIFT">     -0.10000000</i>
   <i type="logical" name="SELFENERGY"> F  </i>
   <i type="logical" name="LSPECTRAL"> F  </i>
   <i type="logical" name="LSPECTRALGW"> F  </i>
   <i type="logical" name="LSINGLES"> F  </i>
   <i type="logical" name="LFERMIGW"> F  </i>
   <i type="logical" name="ODDONLYGW"> F  </i>
   <i type="logical" name="EVENONLYGW"> F  </i>
   <i type="int" name="NKREDLFX">     1</i>
   <i type="int" name="NKREDLFY">     1</i>
   <i type="int" name="NKREDLFZ">     1</i>
   <i type="int" name="MAXMEM">  2800</i>
   <i type="int" name="TELESCOPE">     0</i>
   <i type="int" name="TAUPAR">     1</i>
   <i type="int" name="OMEGAPAR">    -1</i>
   <i name="LAMBDA">      1.00000000</i>
  </separator>
  <separator name="External order field" >
   <i name="OFIELD_KAPPA">      0.00000000</i>
   <v name="OFIELD_K">      0.00000000      0.00000000      0.00000000</v>
   <i name="OFIELD_Q6_NEAR">      0.00000000</i>
   <i name="OFIELD_Q6_FAR">      0.00000000</i>
   <i name="OFIELD_A">      0.00000000</i>
  </separator>
  <separator name="solvation model" >
   <i type="logical" name="LSOL"> F  </i>
  </separator>
 </parameters>
 <atominfo>
  <atoms>      30 </atoms>
  <types>       5 </types>
  <array name="atoms" >
   <dimension dim="1">ion</dimension>
   <field type="string">element</field>
   <field type="int">atomtype</field>
   <set>
    <rc><c>Nb</c><c>   1</c></rc>
    <rc><c>Nb</c><c>   1</c></rc>
    <rc><c>Nb</c><c>   1</c></rc>
    <rc><c>Nb</c><c>   1</c></rc>
    <rc><c>Nb</c><c>   1</c></rc>
    <rc><c>Nb</c><c>   1</c></rc>
    <rc><c>Mo</c><c>   2</c></rc>
    <rc><c>Mo</c><c>   2</c></rc>
    <rc><c>Mo</c><c>   2</c></rc>
    <rc><c>Mo</c><c>   2</c></rc>
    <rc><c>Mo</c><c>   2</c></rc>
    <rc><c>Mo</c><c>   2</c></rc>
    <rc><c>Ta</c><c>   3</c></rc>
    <rc><c>Ta</c><c>   3</c></rc>
    <rc><c>Ta</c><c>   3</c></rc>
    <rc><c>Ta</c><c>   3</c></rc>
    <rc><c>Ta</c><c>   3</c></rc>
    <rc><c>Ta</c><c>   3</c></rc>
    <rc><c>Ti</c><c>   4</c></rc>
    <rc><c>Ti</c><c>   4</c></rc>
    <rc><c>Ti</c><c>   4</c></rc>
    <rc><c>Ti</c><c>   4</c></rc>
    <rc><c>Ti</c><c>   4</c></rc>
    <rc><c>Ti</c><c>   4</c></rc>
    <rc><c>V </c><c>   5</c></rc>
    <rc><c>V </c><c>   5</c></rc>
    <rc><c>V </c><c>   5</c></rc>
    <rc><c>V </c><c>   5</c></rc>
    <rc><c>V </c><c>   5</c></rc>
    <rc><c>V </c><c>   5</c></rc>
   </set>
  </array>
  <array name="atomtypes" >
   <dimension dim="1">type</dimension>
   <field type="int">atomspertype</field>
   <field type="string">element</field>
   <field>mass</field>
   <field>valence</field>
   <field type="string">pseudopotential</field>
   <set>
    <rc><c>   6</c><c>Nb</c><c>     92.91000000</c><c>     13.00000000</c><c>  PAW_PBE Nb_sv 25May2007               </c></rc>
    <rc><c>   6</c><c>Mo</c><c>     95.94000000</c><c>      6.00000000</c><c>  PAW_PBE Mo 08Apr2002                  </c></rc>
    <rc><c>   6</c><c>Ta</c><c>    180.94800000</c><c>      5.00000000</c><c>  PAW_PBE Ta 17Jan2003                  </c></rc>
    <rc><c>   6</c><c>Ti</c><c>     47.88000000</c><c>      4.00000000</c><c>  PAW_PBE Ti 08Apr2002                  </c></rc>
    <rc><c>   6</c><c>V </c><c>     50.94100000</c><c>      5.00000000</c><c>  PAW_PBE V 08Apr2002                   </c></rc>
   </set>
  </array>
 </atominfo>
 <structure name="initialpos" >
  <crystal>
   <varray name="basis" >
    <v>      -3.21000000      -3.21000000      -3.21000000 </v>
    <v>       1.60500000       1.60500000      -8.02500000 </v>
    <v>       8.02500000      -8.02500000      -1.60500000 </v>
   </varray>
   <i name="volume">    496.14241500 </i>
   <varray name="rec_basis" >
    <v>      -0.13499481      -0.12461059      -0.05192108 </v>
    <v>       0.04153686       0.06230530      -0.10384216 </v>
    <v>       0.06230530      -0.06230530       0.00000000 </v>
   </varray>
  </crystal>
  <varray name="positions" >
   <v>       0.96666667       0.93333333       0.40000000 </v>
   <v>       0.63333333       0.26666667       0.40000000 </v>
   <v>       0.50000000       0.00000000       0.00000000 </v>
   <v>       0.00000000       0.00000000       0.00000000 </v>
   <v>       0.10000000       0.20000000       0.80000000 </v>
   <v>       0.03333333       0.06666667       0.60000000 </v>
   <v>       0.90000000       0.80000000       0.20000000 </v>
   <v>       0.80000000       0.60000000       0.40000000 </v>
   <v>       0.73333333       0.46666667       0.20000000 </v>
   <v>       0.66666667       0.33333333       0.00000000 </v>
   <v>       0.36666667       0.73333333       0.60000000 </v>
   <v>       0.13333333       0.26666667       0.40000000 </v>
   <v>       0.83333333       0.66666667       0.00000000 </v>
   <v>       0.93333333       0.86666667       0.80000000 </v>
   <v>       0.56666667       0.13333333       0.20000000 </v>
   <v>       0.40000000       0.80000000       0.20000000 </v>
   <v>       0.43333333       0.86666667       0.80000000 </v>
   <v>       0.30000000       0.60000000       0.40000000 </v>
   <v>       0.86666667       0.73333333       0.60000000 </v>
   <v>       0.46666667       0.93333333       0.40000000 </v>
   <v>       0.16666667       0.33333333       0.00000000 </v>
   <v>       0.26666667       0.53333333       0.80000000 </v>
   <v>       0.20000000       0.40000000       0.60000000 </v>
   <v>       0.06666667       0.13333333       0.20000000 </v>
   <v>       0.76666667       0.53333333       0.80000000 </v>
   <v>       0.70000000       0.40000000       0.60000000 </v>
   <v>       0.60000000       0.20000000       0.80000000 </v>
   <v>       0.53333333       0.06666667       0.60000000 </v>
   <v>       0.33333333       0.66666667       0.00000000 </v>
   <v>       0.23333333       0.46666667       0.20000000 </v>
  </varray>
 </structure>
 <calculation>
  <scstep>
   <time name="dav">   28.53   28.57</time>
   <time name="total">   29.15   29.22</time>
   <energy>
    <i name="alphaZ">   1173.46710061 </i>
    <i name="ewald"> -11354.78951466 </i>
    <i name="hartreedc">  -2994.12210536 </i>
    <i name="XCdc">   -890.15318380 </i>
    <i name="pawpsdc">  18195.68118581 </i>
    <i name="pawaedc"> -16685.93667786 </i>
    <i name="eentropy">     -0.01123714 </i>
    <i name="bandstr">   -768.34788402 </i>
    <i name="atom">  13005.90793652 </i>
    <i name="e_fr_energy">   -318.30437990 </i>
    <i name="e_wo_entrp">   -318.29314275 </i>
    <i name="e_0_energy">   -318.30063418 </i>
   </energy>
  </scstep>
  <scstep>
   <time name="dav">   27.10   27.14</time>
   <time name="total">   27.73   27.76</time>
   <energy>
    <i name="e_fr_energy">   -318.23867265 </i>
    <i name="e_wo_entrp">   -318.22685116 </i>
    <i name="e_0_energy">   -318.23473215 </i>
   </energy>
  </scstep>
  <scstep>
   <time name="dav">   25.84   25.87</time>
   <time name="total">   26.46   26.49</time>
   <energy>
    <i name="e_fr_energy">   -318.23717752 </i>
    <i name="e_wo_entrp">   -318.22616370 </i>
    <i name="e_0_energy">   -318.23350624 </i>
   </energy>
  </scstep>
  <scstep>
   <time name="dav">   22.39   22.42</time>
   <time name="total">   23.01   23.05</time>
   <energy>
    <i name="e_fr_energy">   -318.23724820 </i>
    <i name="e_wo_entrp">   -318.22607929 </i>
    <i name="e_0_energy">   -318.23352523 </i>
   </energy>
  </scstep>
  <scstep>
   <time name="dav">   18.73   18.75</time>
   <time name="total">   18.76   18.78</time>
   <energy>
    <i name="alphaZ">   1173.46710061 </i>
    <i name="ewald"> -11354.78951466 </i>
    <i name="hartreedc">  -2994.27393566 </i>
    <i name="XCdc">   -890.14789541 </i>
    <i name="pawpsdc">  18196.55842951 </i>
    <i name="pawaedc"> -16686.85316899 </i>
    <i name="eentropy">     -0.01108335 </i>
    <i name="bandstr">   -768.09502868 </i>
    <i name="atom">  13005.90793652 </i>
    <i name="e_fr_energy">   -318.23716012 </i>
    <i name="e_wo_entrp">   -318.22607677 </i>
    <i name="e_0_energy">   -318.23346567 </i>
   </energy>
  </scstep>
  <structure>
   <crystal>
    <varray name="basis" >
     <v>      -3.21000000      -3.21000000      -3.21000000 </v>
     <v>       1.60500000       1.60500000      -8.02500000 </v>
     <v>       8.02500000      -8.02500000      -1.60500000 </v>
    </varray>
    <i name="volume">    496.14241500 </i>
    <varray name="rec_basis" >
     <v>      -0.13499481      -0.12461059      -0.05192108 </v>
     <v>       0.04153686       0.06230530      -0.10384216 </v>
     <v>       0.06230530      -0.06230530       0.00000000 </v>
    </varray>
   </crystal>
   <varray name="positions" >
    <v>       0.96666667       0.93333333       0.40000000 </v>
    <v>       0.63333333       0.26666667       0.40000000 </v>
    <v>       0.50000000       0.00000000       0.00000000 </v>
    <v>       0.00000000       0.00000000       0.00000000 </v>
    <v>       0.10000000       0.20000000       0.80000000 </v>
    <v>       0.03333333       0.06666667       0.60000000 </v>
    <v>       0.90000000       0.80000000       0.20000000 </v>
    <v>       0.80000000       0.60000000       0.40000000 </v>
    <v>       0.73333333       0.46666667       0.20000000 </v>
    <v>       0.66666667       0.33333333       0.00000000 </v>
    <v>       0.36666667       0.73333333       0.60000000 </v>
    <v>       0.13333333       0.26666667       0.40000000 </v>
    <v>       0.83333333       0.66666667       0.00000000 </v>
    <v>       0.93333333       0.86666667       0.80000000 </v>
    <v>       0.56666667       0.13333333       0.20000000 </v>
    <v>       0.40000000       0.80000000       0.20000000 </v>
    <v>       0.43333333       0.86666667       0.80000000 </v>
    <v>       0.30000000       0.60000000       0.40000000 </v>
    <v>       0.86666667       0.73333333       0.60000000 </v>
    <v>       0.46666667       0.93333333       0.40000000 </v>
    <v>       0.16666667       0.33333333       0.00000000 </v>
    <v>       0.26666667       0.53333333       0.80000000 </v>
    <v>       0.20000000       0.40000000       0.60000000 </v>
    <v>       0.06666667       0.13333333       0.20000000 </v>
    <v>       0.76666667       0.53333333       0.80000000 </v>
    <v>       0.70000000       0.40000000       0.60000000 </v>
    <v>       0.60000000       0.20000000       0.80000000 </v>
    <v>       0.53333333       0.06666667       0.60000000 </v>
    <v>       0.33333333       0.66666667       0.00000000 </v>
    <v>       0.23333333       0.46666667       0.20000000 </v>
   </varray>
  </structure>
  <varray name="forces" >
   <v>       0.00633609       0.44631520       0.24142912 </v>
   <v>       0.26576449      -0.09459163       0.00228006 </v>
   <v>      -0.13017570       0.31881623      -0.16137049 </v>
   <v>       0.24861977      -0.01649249      -0.00890437 </v>
   <v>      -0.05576239       0.60715720      -0.42403722 </v>
   <v>      -0.26781186       0.23245930      -0.31039619 </v>
   <v>       0.02825433      -0.50808614       0.14504213 </v>
   <v>      -0.59214647      -0.25164798       0.58408515 </v>
   <v>      -0.12616095       0.30150850       0.03022759 </v>
   <v>       0.17093235       0.40910114      -0.53887969 </v>
   <v>      -0.09572736      -0.31592949       0.24884697 </v>
   <v>       0.14381724       0.17915672      -0.60892550 </v>
   <v>       0.17721741      -0.43317668       0.38358349 </v>
   <v>       0.28154552       0.31356469      -0.10545397 </v>
   <v>      -0.31387530       0.45263828      -0.12131028 </v>
   <v>      -0.72405518      -0.14626828       0.74229574 </v>
   <v>      -0.77926877      -0.09023533       0.61190710 </v>
   <v>       0.31879698      -0.29910671      -0.26197533 </v>
   <v>       0.06099949       0.23443670       0.44431128 </v>
   <v>       0.52574005      -0.47728460       0.14595116 </v>
   <v>      -0.02791132      -0.17378134      -0.36870914 </v>
   <v>      -0.31937535      -0.00095132      -0.29346494 </v>
   <v>      -0.26591956      -0.03690056       0.51853787 </v>
   <v>       0.61576808      -0.14606030      -0.79972160 </v>
   <v>       0.10198200      -0.38960585       0.52702838 </v>
   <v>       0.50603345       0.16892034      -0.39489289 </v>
   <v>       0.02135231       0.19489001      -0.15158375 </v>
   <v>       0.18949123      -0.45422917      -0.43920394 </v>
   <v>      -0.22923158      -0.22253186       0.52624987 </v>
   <v>       0.26477100       0.19791539      -0.16294660 </v>
  </varray>
  <varray name="stress" >
   <v>     -80.51237607      -3.21348179       1.34309424 </v>
   <v>      -3.21348174     -83.28379495      -0.22891592 </v>
   <v>       1.34309440      -0.22891585     -81.98171446 </v>
  </varray>
  <energy>
   <i name="e_fr_energy">   -318.23716012 </i>
   <i name="e_wo_entrp">   -318.23346567 </i>
   <i name="e_0_energy">     -0.01108335 </i>
  </energy>
  <time name="totalsc">  149.13  154.07</time>
  <eigenvalues>
   <array>
    <dimension dim="1">band</dimension>
    <dimension dim="2">kpoint</dimension>
    <dimension dim="3">spin</dimension>
    <field>eigene</field>
    <field>occ</field>
    <set>
     <set comment="spin 1">
      <set comment="kpoint 1">
       <r>  -47.7723    1.0000 </r>
       <r>  -47.7526    1.0000 </r>
       <r>  -47.7148    1.0000 </r>
       <r>  -47.6711    1.0000 </r>
       <r>  -47.6422    1.0000 </r>
       <r>  -47.5465    1.0000 </r>
       <r>  -24.4357    1.0000 </r>
       <r>  -24.2991    1.0000 </r>
       <r>  -24.1581    1.0000 </r>
       <r>  -24.1188    1.0000 </r>
       <r>  -23.9169    1.0000 </r>
       <r>  -23.9112    1.0000 </r>
       <r>  -23.9074    1.0000 </r>
       <r>  -23.8622    1.0000 </r>
       <r>  -23.8475    1.0000 </r>
       <r>  -23.8300    1.0000 </r>
       <r>  -23.8103    1.0000 </r>
       <r>  -23.7672    1.0000 </r>
       <r>  -23.7236    1.0000 </r>
       <r>  -23.7072    1.0000 </r>
       <r>  -23.5852    1.0000 </r>
       <r>  -23.5680    1.0000 </r>
       <r>  -23.4324    1.0000 </r>
       <r>  -23.2215    1.0000 </r>
       <r>   -0.4167    1.0000 </r>
       <r>    0.8485    1.0000 </r>
       <r>    1.2027    1.0000 </r>
       <r>    2.0192    1.0000 </r>
       <r>    2.1824    1.0000 </r>
       <r>    2.2517    1.0000 </r>
       <r>    2.3736    1.0000 </r>
       <r>    2.5058    1.0000 </r>
       <r>    2.5397    1.0000 </r>
       <r>    2.6281    1.0000 </r>
       <r>    2.6708    1.0000 </r>
       <r>    2.7513    1.0000 </r>
       <r>    2.8117    1.0000 </r>
       <r>    2.8524    1.0000 </r>
       <r>    2.9852    1.0000 </r>
       <r>    3.0316    1.0000 </r>
       <r>    3.1070    1.0000 </r>
       <r>    3.2209    1.0000 </r>
       <r>    3.3221    1.0000 </r>
       <r>    3.3582    1.0000 </r>
       <r>    3.4139    1.0000 </r>
       <r>    3.4694    1.0000 </r>
       <r>    3.5368    1.0000 </r>
       <r>    3.5540    1.0000 </r>
       <r>    3.6801    1.0000 </r>
       <r>    3.7294    1.0000 </r>
       <r>    3.8137    1.0000 </r>
       <r>    3.8789    1.0000 </r>
       <r>    3.9467    1.0000 </r>
       <r>    3.9824    1.0000 </r>
       <r>    4.1201    1.0000 </r>
       <r>    4.1816    1.0000 </r>
       <r>    4.2610    1.0000 </r>
       <r>    4.3021    1.0000 </r>
       <r>    4.4555    1.0000 </r>
       <r>    4.4899    1.0000 </r>
       <r>    4.5674    1.0000 </r>
       <r>    4.6128    1.0000 </r>
       <r>    4.6202    1.0000 </r>
       <r>    4.7057    1.0000 </r>
       <r>    4.7109    1.0000 </r>
       <r>    4.8012    1.0000 </r>
       <r>    4.8169    1.0000 </r>
       <r>    4.8984    1.0000 </r>
       <r>    4.9186    1.0000 </r>
       <r>    4.9659    1.0000 </r>
       <r>    5.0196    1.0000 </r>
       <r>    5.0458    1.0000 </r>
       <r>    5.1076    1.0000 </r>
       <r>    5.1527    1.0000 </r>
       <r>    5.1648    1.0000 </r>
       <r>    5.1776    1.0000 </r>
       <r>    5.2014    1.0000 </r>
       <r>    5.3132    1.0000 </r>
       <r>    5.3761    1.0000 </r>
       <r>    5.4617    1.0000 </r>
       <r>    5.6156    1.0000 </r>
       <r>    5.6678    1.0001 </r>
       <r>    5.7174    1.0003 </r>
       <r>    5.7518    1.0007 </r>
       <r>    5.7920    1.0017 </r>
       <r>    5.8532    1.0056 </r>
       <r>    5.9116    1.0139 </r>
       <r>    5.9344    1.0185 </r>
       <r>    5.9580    1.0239 </r>
       <r>    5.9631    1.0251 </r>
       <r>    5.9848    1.0299 </r>
       <r>    6.0272    1.0354 </r>
       <r>    6.0529    1.0330 </r>
       <r>    6.1065    0.9995 </r>
       <r>    6.2612    0.5556 </r>
       <r>    6.2922    0.4251 </r>
       <r>    6.3714    0.1383 </r>
       <r>    6.3861    0.0994 </r>
       <r>    6.4204    0.0301 </r>
       <r>    6.5056   -0.0347 </r>
       <r>    6.5591   -0.0309 </r>
       <r>    6.5976   -0.0223 </r>
       <r>    6.6898   -0.0062 </r>
       <r>    6.6970   -0.0055 </r>
       <r>    6.7060   -0.0046 </r>
       <r>    6.7932   -0.0008 </r>
       <r>    7.0222   -0.0000 </r>
       <r>    7.1681   -0.0000 </r>
       <r>    7.1938   -0.0000 </r>
       <r>    7.2775   -0.0000 </r>
       <r>    7.6815   -0.0000 </r>
       <r>    7.8374   -0.0000 </r>
       <r>    7.9724   -0.0000 </r>
       <r>    8.0569   -0.0000 </r>
       <r>    8.0906   -0.0000 </r>
       <r>    8.1249   -0.0000 </r>
       <r>    8.1435   -0.0000 </r>
       <r>    8.1738   -0.0000 </r>
       <r>    8.2487   -0.0000 </r>
       <r>    8.3121   -0.0000 </r>
      </set>
      <set comment="kpoint 2">
       <r>  -47.7706    1.0000 </r>
       <r>  -47.7475    1.0000 </r>
       <r>  -47.7125    1.0000 </r>
       <r>  -47.6702    1.0000 </r>
       <r>  -47.6416    1.0000 </r>
       <r>  -47.5569    1.0000 </r>
       <r>  -24.3495    1.0000 </r>
       <r>  -24.2868    1.0000 </r>
       <r>  -24.1519    1.0000 </r>
       <r>  -24.1131    1.0000 </r>
       <r>  -23.9184    1.0000 </r>
       <r>  -23.9129    1.0000 </r>
       <r>  -23.9027    1.0000 </r>
       <r>  -23.8638    1.0000 </r>
       <r>  -23.8465    1.0000 </r>
       <r>  -23.8337    1.0000 </r>
       <r>  -23.8124    1.0000 </r>
       <r>  -23.7696    1.0000 </r>
       <r>  -23.7327    1.0000 </r>
       <r>  -23.7095    1.0000 </r>
       <r>  -23.5903    1.0000 </r>
       <r>  -23.5727    1.0000 </r>
       <r>  -23.4341    1.0000 </r>
       <r>  -23.3365    1.0000 </r>
       <r>   -0.1140    1.0000 </r>
       <r>    1.1157    1.0000 </r>
       <r>    1.4591    1.0000 </r>
       <r>    2.0444    1.0000 </r>
       <r>    2.3890    1.0000 </r>
       <r>    2.4852    1.0000 </r>
       <r>    2.5365    1.0000 </r>
       <r>    2.6688    1.0000 </r>
       <r>    2.6956    1.0000 </r>
       <r>    2.7360    1.0000 </r>
       <r>    2.8633    1.0000 </r>
       <r>    2.9357    1.0000 </r>
       <r>    2.9856    1.0000 </r>
       <r>    3.0758    1.0000 </r>
       <r>    3.1288    1.0000 </r>
       <r>    3.1847    1.0000 </r>
       <r>    3.2300    1.0000 </r>
       <r>    3.2599    1.0000 </r>
       <r>    3.3392    1.0000 </r>
       <r>    3.3885    1.0000 </r>
       <r>    3.5133    1.0000 </r>
       <r>    3.5484    1.0000 </r>
       <r>    3.6173    1.0000 </r>
       <r>    3.7166    1.0000 </r>
       <r>    3.7544    1.0000 </r>
       <r>    3.7719    1.0000 </r>
       <r>    3.8859    1.0000 </r>
       <r>    3.9611    1.0000 </r>
       <r>    3.9977    1.0000 </r>
       <r>    4.0805    1.0000 </r>
       <r>    4.1383    1.0000 </r>
       <r>    4.2156    1.0000 </r>
       <r>    4.2861    1.0000 </r>
       <r>    4.3689    1.0000 </r>
       <r>    4.4873    1.0000 </r>
       <r>    4.5401    1.0000 </r>
       <r>    4.5996    1.0000 </r>
       <r>    4.7303    1.0000 </r>
       <r>    4.7428    1.0000 </r>
       <r>    4.8160    1.0000 </r>
       <r>    4.8491    1.0000 </r>
       <r>    4.8793    1.0000 </r>
       <r>    4.9259    1.0000 </r>
       <r>    4.9894    1.0000 </r>
       <r>    5.0042    1.0000 </r>
       <r>    5.0139    1.0000 </r>
       <r>    5.0868    1.0000 </r>
       <r>    5.1143    1.0000 </r>
       <r>    5.1739    1.0000 </r>
       <r>    5.1886    1.0000 </r>
       <r>    5.2711    1.0000 </r>
       <r>    5.3003    1.0000 </r>
       <r>    5.3173    1.0000 </r>
       <r>    5.3474    1.0000 </r>
       <r>    5.3885    1.0000 </r>
       <r>    5.4351    1.0000 </r>
       <r>    5.4415    1.0000 </r>
       <r>    5.5396    1.0000 </r>
       <r>    5.5883    1.0000 </r>
       <r>    5.6495    1.0000 </r>
       <r>    5.6877    1.0001 </r>
       <r>    5.7354    1.0005 </r>
       <r>    5.7632    1.0009 </r>
       <r>    5.8533    1.0056 </r>
       <r>    5.9411    1.0200 </r>
       <r>    5.9638    1.0252 </r>
       <r>    5.9974    1.0323 </r>
       <r>    6.0362    1.0353 </r>
       <r>    6.0635    1.0299 </r>
       <r>    6.1004    1.0058 </r>
       <r>    6.1932    0.8141 </r>
       <r>    6.2109    0.7542 </r>
       <r>    6.2575    0.5713 </r>
       <r>    6.2900    0.4343 </r>
       <r>    6.3546    0.1889 </r>
       <r>    6.3905    0.0889 </r>
       <r>    6.4176    0.0347 </r>
       <r>    6.4698   -0.0226 </r>
       <r>    6.5391   -0.0341 </r>
       <r>    6.5754   -0.0274 </r>
       <r>    6.5985   -0.0221 </r>
       <r>    6.6512   -0.0114 </r>
       <r>    6.6694   -0.0087 </r>
       <r>    6.8726   -0.0001 </r>
       <r>    6.9530   -0.0000 </r>
       <r>    7.0540   -0.0000 </r>
       <r>    7.3546   -0.0000 </r>
       <r>    7.3987   -0.0000 </r>
       <r>    7.4499   -0.0000 </r>
       <r>    7.5015   -0.0000 </r>
       <r>    7.5986   -0.0000 </r>
       <r>    7.7520   -0.0000 </r>
       <r>    7.8047   -0.0000 </r>
       <r>    7.8604   -0.0000 </r>
       <r>    7.8783   -0.0000 </r>
       <r>    7.9167   -0.0000 </r>
      </set>
      <set comment="kpoint 3">
       <r>  -47.7685    1.0000 </r>
       <r>  -47.7394    1.0000 </r>
       <r>  -47.7064    1.0000 </r>
       <r>  -47.6673    1.0000 </r>
       <r>  -47.6395    1.0000 </r>
       <r>  -47.5772    1.0000 </r>
       <r>  -24.3093    1.0000 </r>
       <r>  -24.1713    1.0000 </r>
       <r>  -24.1279    1.0000 </r>
       <r>  -24.0114    1.0000 </r>
       <r>  -23.9245    1.0000 </r>
       <r>  -23.9157    1.0000 </r>
       <r>  -23.8915    1.0000 </r>
       <r>  -23.8650    1.0000 </r>
       <r>  -23.8454    1.0000 </r>
       <r>  -23.8338    1.0000 </r>
       <r>  -23.8161    1.0000 </r>
       <r>  -23.7736    1.0000 </r>
       <r>  -23.7535    1.0000 </r>
       <r>  -23.7139    1.0000 </r>
       <r>  -23.6552    1.0000 </r>
       <r>  -23.5935    1.0000 </r>
       <r>  -23.5625    1.0000 </r>
       <r>  -23.4292    1.0000 </r>
       <r>    0.7012    1.0000 </r>
       <r>    1.6299    1.0000 </r>
       <r>    1.9574    1.0000 </r>
       <r>    2.1734    1.0000 </r>
       <r>    2.2531    1.0000 </r>
       <r>    2.6295    1.0000 </r>
       <r>    2.6824    1.0000 </r>
       <r>    2.8585    1.0000 </r>
       <r>    2.9662    1.0000 </r>
       <r>    3.0594    1.0000 </r>
       <r>    3.1305    1.0000 </r>
       <r>    3.1647    1.0000 </r>
       <r>    3.2558    1.0000 </r>
       <r>    3.2808    1.0000 </r>
       <r>    3.3760    1.0000 </r>
       <r>    3.4327    1.0000 </r>
       <r>    3.4918    1.0000 </r>
       <r>    3.5303    1.0000 </r>
       <r>    3.5495    1.0000 </r>
       <r>    3.6354    1.0000 </r>
       <r>    3.7365    1.0000 </r>
       <r>    3.7486    1.0000 </r>
       <r>    3.8071    1.0000 </r>
       <r>    3.8357    1.0000 </r>
       <r>    3.9425    1.0000 </r>
       <r>    3.9725    1.0000 </r>
       <r>    4.1017    1.0000 </r>
       <r>    4.1531    1.0000 </r>
       <r>    4.2116    1.0000 </r>
       <r>    4.2936    1.0000 </r>
       <r>    4.3634    1.0000 </r>
       <r>    4.4209    1.0000 </r>
       <r>    4.4919    1.0000 </r>
       <r>    4.5352    1.0000 </r>
       <r>    4.5633    1.0000 </r>
       <r>    4.6202    1.0000 </r>
       <r>    4.6544    1.0000 </r>
       <r>    4.6963    1.0000 </r>
       <r>    4.7503    1.0000 </r>
       <r>    4.7810    1.0000 </r>
       <r>    4.8100    1.0000 </r>
       <r>    4.8957    1.0000 </r>
       <r>    4.9171    1.0000 </r>
       <r>    4.9459    1.0000 </r>
       <r>    4.9861    1.0000 </r>
       <r>    5.0406    1.0000 </r>
       <r>    5.0949    1.0000 </r>
       <r>    5.1408    1.0000 </r>
       <r>    5.1773    1.0000 </r>
       <r>    5.2215    1.0000 </r>
       <r>    5.2730    1.0000 </r>
       <r>    5.3255    1.0000 </r>
       <r>    5.3803    1.0000 </r>
       <r>    5.4063    1.0000 </r>
       <r>    5.4206    1.0000 </r>
       <r>    5.4602    1.0000 </r>
       <r>    5.5485    1.0000 </r>
       <r>    5.5995    1.0000 </r>
       <r>    5.6311    1.0000 </r>
       <r>    5.6717    1.0001 </r>
       <r>    5.7181    1.0003 </r>
       <r>    5.7648    1.0009 </r>
       <r>    5.8157    1.0028 </r>
       <r>    5.8518    1.0055 </r>
       <r>    5.8950    1.0110 </r>
       <r>    5.9186    1.0153 </r>
       <r>    5.9470    1.0214 </r>
       <r>    5.9786    1.0286 </r>
       <r>    6.0168    1.0349 </r>
       <r>    6.0410    1.0349 </r>
       <r>    6.0473    1.0341 </r>
       <r>    6.1320    0.9639 </r>
       <r>    6.1692    0.8839 </r>
       <r>    6.2039    0.7788 </r>
       <r>    6.2487    0.6077 </r>
       <r>    6.2568    0.5740 </r>
       <r>    6.3023    0.3829 </r>
       <r>    6.3460    0.2174 </r>
       <r>    6.3586    0.1763 </r>
       <r>    6.4394    0.0038 </r>
       <r>    6.4439   -0.0013 </r>
       <r>    6.5143   -0.0354 </r>
       <r>    6.5679   -0.0291 </r>
       <r>    6.5925   -0.0235 </r>
       <r>    6.6209   -0.0171 </r>
       <r>    6.6870   -0.0065 </r>
       <r>    6.7234   -0.0033 </r>
       <r>    6.7685   -0.0013 </r>
       <r>    7.0453   -0.0000 </r>
       <r>    7.1644   -0.0000 </r>
       <r>    7.1860   -0.0000 </r>
       <r>    7.3068   -0.0000 </r>
       <r>    7.3903   -0.0000 </r>
       <r>    7.4107   -0.0000 </r>
       <r>    7.5233   -0.0000 </r>
       <r>    7.6230   -0.0000 </r>
      </set>
      <set comment="kpoint 4">
       <r>  -47.7722    1.0000 </r>
       <r>  -47.7525    1.0000 </r>
       <r>  -47.7148    1.0000 </r>
       <r>  -47.6713    1.0000 </r>
       <r>  -47.6423    1.0000 </r>
       <r>  -47.5465    1.0000 </r>
       <r>  -24.4357    1.0000 </r>
       <r>  -24.2982    1.0000 </r>
       <r>  -24.1549    1.0000 </r>
       <r>  -24.1180    1.0000 </r>
       <r>  -23.9170    1.0000 </r>
       <r>  -23.9113    1.0000 </r>
       <r>  -23.9075    1.0000 </r>
       <r>  -23.8623    1.0000 </r>
       <r>  -23.8475    1.0000 </r>
       <r>  -23.8299    1.0000 </r>
       <r>  -23.8103    1.0000 </r>
       <r>  -23.7672    1.0000 </r>
       <r>  -23.7236    1.0000 </r>
       <r>  -23.7072    1.0000 </r>
       <r>  -23.5872    1.0000 </r>
       <r>  -23.5713    1.0000 </r>
       <r>  -23.4327    1.0000 </r>
       <r>  -23.2215    1.0000 </r>
       <r>   -0.2894    1.0000 </r>
       <r>    0.9117    1.0000 </r>
       <r>    1.3205    1.0000 </r>
       <r>    1.5376    1.0000 </r>
       <r>    2.1283    1.0000 </r>
       <r>    2.3229    1.0000 </r>
       <r>    2.3987    1.0000 </r>
       <r>    2.5362    1.0000 </r>
       <r>    2.5464    1.0000 </r>
       <r>    2.6321    1.0000 </r>
       <r>    2.7135    1.0000 </r>
       <r>    2.7796    1.0000 </r>
       <r>    2.8261    1.0000 </r>
       <r>    2.8838    1.0000 </r>
       <r>    2.9598    1.0000 </r>
       <r>    2.9909    1.0000 </r>
       <r>    3.1042    1.0000 </r>
       <r>    3.1607    1.0000 </r>
       <r>    3.2796    1.0000 </r>
       <r>    3.3570    1.0000 </r>
       <r>    3.4409    1.0000 </r>
       <r>    3.5124    1.0000 </r>
       <r>    3.5397    1.0000 </r>
       <r>    3.6483    1.0000 </r>
       <r>    3.6722    1.0000 </r>
       <r>    3.7518    1.0000 </r>
       <r>    3.8209    1.0000 </r>
       <r>    3.8951    1.0000 </r>
       <r>    3.9225    1.0000 </r>
       <r>    3.9709    1.0000 </r>
       <r>    4.0456    1.0000 </r>
       <r>    4.1259    1.0000 </r>
       <r>    4.2274    1.0000 </r>
       <r>    4.3905    1.0000 </r>
       <r>    4.4745    1.0000 </r>
       <r>    4.5347    1.0000 </r>
       <r>    4.5766    1.0000 </r>
       <r>    4.6771    1.0000 </r>
       <r>    4.7106    1.0000 </r>
       <r>    4.7596    1.0000 </r>
       <r>    4.8032    1.0000 </r>
       <r>    4.8358    1.0000 </r>
       <r>    4.8883    1.0000 </r>
       <r>    4.9438    1.0000 </r>
       <r>    4.9602    1.0000 </r>
       <r>    4.9921    1.0000 </r>
       <r>    5.0431    1.0000 </r>
       <r>    5.0737    1.0000 </r>
       <r>    5.1099    1.0000 </r>
       <r>    5.1677    1.0000 </r>
       <r>    5.2110    1.0000 </r>
       <r>    5.2347    1.0000 </r>
       <r>    5.2833    1.0000 </r>
       <r>    5.3006    1.0000 </r>
       <r>    5.4122    1.0000 </r>
       <r>    5.4404    1.0000 </r>
       <r>    5.6238    1.0000 </r>
       <r>    5.6439    1.0000 </r>
       <r>    5.7101    1.0002 </r>
       <r>    5.7414    1.0005 </r>
       <r>    5.7749    1.0012 </r>
       <r>    5.7975    1.0019 </r>
       <r>    5.8305    1.0037 </r>
       <r>    5.8811    1.0089 </r>
       <r>    5.9162    1.0148 </r>
       <r>    5.9374    1.0192 </r>
       <r>    5.9705    1.0268 </r>
       <r>    6.0143    1.0347 </r>
       <r>    6.0513    1.0333 </r>
       <r>    6.0849    1.0188 </r>
       <r>    6.1384    0.9527 </r>
       <r>    6.1482    0.9334 </r>
       <r>    6.2121    0.7498 </r>
       <r>    6.2778    0.4857 </r>
       <r>    6.3290    0.2781 </r>
       <r>    6.5530   -0.0320 </r>
       <r>    6.6257   -0.0162 </r>
       <r>    6.6481   -0.0119 </r>
       <r>    6.6946   -0.0057 </r>
       <r>    6.7869   -0.0009 </r>
       <r>    6.8424   -0.0002 </r>
       <r>    6.8683   -0.0001 </r>
       <r>    6.9967   -0.0000 </r>
       <r>    7.1812   -0.0000 </r>
       <r>    7.2265   -0.0000 </r>
       <r>    7.2870   -0.0000 </r>
       <r>    7.4230   -0.0000 </r>
       <r>    7.4688   -0.0000 </r>
       <r>    7.5880   -0.0000 </r>
       <r>    7.8312   -0.0000 </r>
       <r>    7.9040   -0.0000 </r>
       <r>    8.0293   -0.0000 </r>
       <r>    8.0544   -0.0000 </r>
       <r>    8.1158   -0.0000 </r>
       <r>    8.1526   -0.0000 </r>
       <r>    8.1917   -0.0000 </r>
      </set>
      <set comment="kpoint 5">
       <r>  -47.7707    1.0000 </r>
       <r>  -47.7476    1.0000 </r>
       <r>  -47.7125    1.0000 </r>
       <r>  -47.6700    1.0000 </r>
       <r>  -47.6415    1.0000 </r>
       <r>  -47.5569    1.0000 </r>
       <r>  -24.3496    1.0000 </r>
       <r>  -24.2877    1.0000 </r>
       <r>  -24.1553    1.0000 </r>
       <r>  -24.1136    1.0000 </r>
       <r>  -23.9184    1.0000 </r>
       <r>  -23.9129    1.0000 </r>
       <r>  -23.9027    1.0000 </r>
       <r>  -23.8638    1.0000 </r>
       <r>  -23.8464    1.0000 </r>
       <r>  -23.8336    1.0000 </r>
       <r>  -23.8124    1.0000 </r>
       <r>  -23.7697    1.0000 </r>
       <r>  -23.7327    1.0000 </r>
       <r>  -23.7094    1.0000 </r>
       <r>  -23.5887    1.0000 </r>
       <r>  -23.5692    1.0000 </r>
       <r>  -23.4338    1.0000 </r>
       <r>  -23.3365    1.0000 </r>
       <r>   -0.1094    1.0000 </r>
       <r>    1.0772    1.0000 </r>
       <r>    1.4876    1.0000 </r>
       <r>    2.0235    1.0000 </r>
       <r>    2.3487    1.0000 </r>
       <r>    2.4651    1.0000 </r>
       <r>    2.4964    1.0000 </r>
       <r>    2.5978    1.0000 </r>
       <r>    2.6438    1.0000 </r>
       <r>    2.7254    1.0000 </r>
       <r>    2.7854    1.0000 </r>
       <r>    2.8807    1.0000 </r>
       <r>    2.9814    1.0000 </r>
       <r>    3.0310    1.0000 </r>
       <r>    3.0950    1.0000 </r>
       <r>    3.1367    1.0000 </r>
       <r>    3.2040    1.0000 </r>
       <r>    3.2228    1.0000 </r>
       <r>    3.4182    1.0000 </r>
       <r>    3.4583    1.0000 </r>
       <r>    3.5086    1.0000 </r>
       <r>    3.5774    1.0000 </r>
       <r>    3.6443    1.0000 </r>
       <r>    3.7076    1.0000 </r>
       <r>    3.8065    1.0000 </r>
       <r>    3.8591    1.0000 </r>
       <r>    3.8831    1.0000 </r>
       <r>    3.9730    1.0000 </r>
       <r>    4.0593    1.0000 </r>
       <r>    4.1182    1.0000 </r>
       <r>    4.1765    1.0000 </r>
       <r>    4.2349    1.0000 </r>
       <r>    4.3345    1.0000 </r>
       <r>    4.4191    1.0000 </r>
       <r>    4.4960    1.0000 </r>
       <r>    4.5720    1.0000 </r>
       <r>    4.6254    1.0000 </r>
       <r>    4.6437    1.0000 </r>
       <r>    4.7310    1.0000 </r>
       <r>    4.7485    1.0000 </r>
       <r>    4.7839    1.0000 </r>
       <r>    4.8707    1.0000 </r>
       <r>    4.9005    1.0000 </r>
       <r>    4.9361    1.0000 </r>
       <r>    4.9792    1.0000 </r>
       <r>    5.0001    1.0000 </r>
       <r>    5.0345    1.0000 </r>
       <r>    5.0556    1.0000 </r>
       <r>    5.0805    1.0000 </r>
       <r>    5.1351    1.0000 </r>
       <r>    5.1664    1.0000 </r>
       <r>    5.2331    1.0000 </r>
       <r>    5.3057    1.0000 </r>
       <r>    5.3314    1.0000 </r>
       <r>    5.4015    1.0000 </r>
       <r>    5.4748    1.0000 </r>
       <r>    5.5252    1.0000 </r>
       <r>    5.5818    1.0000 </r>
       <r>    5.6494    1.0000 </r>
       <r>    5.6672    1.0001 </r>
       <r>    5.7086    1.0002 </r>
       <r>    5.7777    1.0012 </r>
       <r>    5.8236    1.0032 </r>
       <r>    5.8853    1.0095 </r>
       <r>    5.9059    1.0129 </r>
       <r>    5.9521    1.0225 </r>
       <r>    5.9824    1.0294 </r>
       <r>    6.0123    1.0345 </r>
       <r>    6.0462    1.0342 </r>
       <r>    6.0677    1.0283 </r>
       <r>    6.1629    0.9001 </r>
       <r>    6.1972    0.8010 </r>
       <r>    6.2620    0.5524 </r>
       <r>    6.3167    0.3252 </r>
       <r>    6.3861    0.0995 </r>
       <r>    6.4260    0.0215 </r>
       <r>    6.4712   -0.0234 </r>
       <r>    6.5209   -0.0354 </r>
       <r>    6.5732   -0.0279 </r>
       <r>    6.6190   -0.0176 </r>
       <r>    6.6492   -0.0118 </r>
       <r>    6.6881   -0.0064 </r>
       <r>    6.7476   -0.0021 </r>
       <r>    6.7991   -0.0007 </r>
       <r>    6.8844   -0.0001 </r>
       <r>    6.9380   -0.0000 </r>
       <r>    7.0199   -0.0000 </r>
       <r>    7.3401   -0.0000 </r>
       <r>    7.6907   -0.0000 </r>
       <r>    7.7930   -0.0000 </r>
       <r>    7.8635   -0.0000 </r>
       <r>    7.8954   -0.0000 </r>
       <r>    8.0406   -0.0000 </r>
       <r>    8.1046   -0.0000 </r>
       <r>    8.1450   -0.0000 </r>
       <r>    8.1922   -0.0000 </r>
      </set>
      <set comment="kpoint 6">
       <r>  -47.7688    1.0000 </r>
       <r>  -47.7396    1.0000 </r>
       <r>  -47.7064    1.0000 </r>
       <r>  -47.6670    1.0000 </r>
       <r>  -47.6395    1.0000 </r>
       <r>  -47.5772    1.0000 </r>
       <r>  -24.3105    1.0000 </r>
       <r>  -24.1744    1.0000 </r>
       <r>  -24.1316    1.0000 </r>
       <r>  -24.0114    1.0000 </r>
       <r>  -23.9245    1.0000 </r>
       <r>  -23.9157    1.0000 </r>
       <r>  -23.8915    1.0000 </r>
       <r>  -23.8651    1.0000 </r>
       <r>  -23.8454    1.0000 </r>
       <r>  -23.8337    1.0000 </r>
       <r>  -23.8161    1.0000 </r>
       <r>  -23.7737    1.0000 </r>
       <r>  -23.7534    1.0000 </r>
       <r>  -23.7138    1.0000 </r>
       <r>  -23.6552    1.0000 </r>
       <r>  -23.5869    1.0000 </r>
       <r>  -23.5605    1.0000 </r>
       <r>  -23.4288    1.0000 </r>
       <r>    0.6076    1.0000 </r>
       <r>    1.5726    1.0000 </r>
       <r>    1.9242    1.0000 </r>
       <r>    2.1281    1.0000 </r>
       <r>    2.2667    1.0000 </r>
       <r>    2.4010    1.0000 </r>
       <r>    2.7219    1.0000 </r>
       <r>    2.9161    1.0000 </r>
       <r>    2.9912    1.0000 </r>
       <r>    3.0778    1.0000 </r>
       <r>    3.1526    1.0000 </r>
       <r>    3.1846    1.0000 </r>
       <r>    3.2686    1.0000 </r>
       <r>    3.3129    1.0000 </r>
       <r>    3.3309    1.0000 </r>
       <r>    3.4464    1.0000 </r>
       <r>    3.5190    1.0000 </r>
       <r>    3.5401    1.0000 </r>
       <r>    3.6200    1.0000 </r>
       <r>    3.6530    1.0000 </r>
       <r>    3.6993    1.0000 </r>
       <r>    3.7384    1.0000 </r>
       <r>    3.8109    1.0000 </r>
       <r>    3.8860    1.0000 </r>
       <r>    3.9416    1.0000 </r>
       <r>    4.0128    1.0000 </r>
       <r>    4.0594    1.0000 </r>
       <r>    4.1334    1.0000 </r>
       <r>    4.1911    1.0000 </r>
       <r>    4.2205    1.0000 </r>
       <r>    4.2826    1.0000 </r>
       <r>    4.3373    1.0000 </r>
       <r>    4.3892    1.0000 </r>
       <r>    4.4703    1.0000 </r>
       <r>    4.5354    1.0000 </r>
       <r>    4.6546    1.0000 </r>
       <r>    4.6797    1.0000 </r>
       <r>    4.6989    1.0000 </r>
       <r>    4.7616    1.0000 </r>
       <r>    4.8109    1.0000 </r>
       <r>    4.8484    1.0000 </r>
       <r>    4.9006    1.0000 </r>
       <r>    4.9323    1.0000 </r>
       <r>    4.9786    1.0000 </r>
       <r>    5.0147    1.0000 </r>
       <r>    5.0599    1.0000 </r>
       <r>    5.1093    1.0000 </r>
       <r>    5.1237    1.0000 </r>
       <r>    5.1614    1.0000 </r>
       <r>    5.2236    1.0000 </r>
       <r>    5.2548    1.0000 </r>
       <r>    5.2980    1.0000 </r>
       <r>    5.3200    1.0000 </r>
       <r>    5.4179    1.0000 </r>
       <r>    5.4584    1.0000 </r>
       <r>    5.5187    1.0000 </r>
       <r>    5.5385    1.0000 </r>
       <r>    5.5947    1.0000 </r>
       <r>    5.6418    1.0000 </r>
       <r>    5.6630    1.0001 </r>
       <r>    5.6885    1.0001 </r>
       <r>    5.7055    1.0002 </r>
       <r>    5.7870    1.0015 </r>
       <r>    5.7955    1.0018 </r>
       <r>    5.8469    1.0050 </r>
       <r>    5.8854    1.0095 </r>
       <r>    5.9114    1.0139 </r>
       <r>    5.9462    1.0212 </r>
       <r>    5.9684    1.0263 </r>
       <r>    6.0124    1.0345 </r>
       <r>    6.0345    1.0354 </r>
       <r>    6.0652    1.0292 </r>
       <r>    6.1059    1.0001 </r>
       <r>    6.1358    0.9574 </r>
       <r>    6.1542    0.9205 </r>
       <r>    6.1916    0.8191 </r>
       <r>    6.2339    0.6673 </r>
       <r>    6.2899    0.4347 </r>
       <r>    6.3276    0.2834 </r>
       <r>    6.3697    0.1431 </r>
       <r>    6.4123    0.0437 </r>
       <r>    6.4363    0.0076 </r>
       <r>    6.5580   -0.0311 </r>
       <r>    6.6613   -0.0098 </r>
       <r>    6.7069   -0.0046 </r>
       <r>    6.7890   -0.0008 </r>
       <r>    6.8597   -0.0001 </r>
       <r>    7.1926   -0.0000 </r>
       <r>    7.3093   -0.0000 </r>
       <r>    7.3702   -0.0000 </r>
       <r>    7.4468   -0.0000 </r>
       <r>    7.5591   -0.0000 </r>
       <r>    7.6215   -0.0000 </r>
       <r>    7.6810   -0.0000 </r>
       <r>    7.7459   -0.0000 </r>
       <r>    7.7809   -0.0000 </r>
      </set>
      <set comment="kpoint 7">
       <r>  -47.7685    1.0000 </r>
       <r>  -47.7394    1.0000 </r>
       <r>  -47.7064    1.0000 </r>
       <r>  -47.6673    1.0000 </r>
       <r>  -47.6395    1.0000 </r>
       <r>  -47.5772    1.0000 </r>
       <r>  -24.3092    1.0000 </r>
       <r>  -24.1713    1.0000 </r>
       <r>  -24.1279    1.0000 </r>
       <r>  -24.0114    1.0000 </r>
       <r>  -23.9246    1.0000 </r>
       <r>  -23.9157    1.0000 </r>
       <r>  -23.8916    1.0000 </r>
       <r>  -23.8651    1.0000 </r>
       <r>  -23.8453    1.0000 </r>
       <r>  -23.8338    1.0000 </r>
       <r>  -23.8161    1.0000 </r>
       <r>  -23.7736    1.0000 </r>
       <r>  -23.7535    1.0000 </r>
       <r>  -23.7139    1.0000 </r>
       <r>  -23.6552    1.0000 </r>
       <r>  -23.5936    1.0000 </r>
       <r>  -23.5625    1.0000 </r>
       <r>  -23.4292    1.0000 </r>
       <r>    0.9608    1.0000 </r>
       <r>    1.6102    1.0000 </r>
       <r>    1.7343    1.0000 </r>
       <r>    2.0221    1.0000 </r>
       <r>    2.3033    1.0000 </r>
       <r>    2.5300    1.0000 </r>
       <r>    2.6179    1.0000 </r>
       <r>    2.7470    1.0000 </r>
       <r>    2.9764    1.0000 </r>
       <r>    3.0676    1.0000 </r>
       <r>    3.1514    1.0000 </r>
       <r>    3.2010    1.0000 </r>
       <r>    3.2413    1.0000 </r>
       <r>    3.3204    1.0000 </r>
       <r>    3.3557    1.0000 </r>
       <r>    3.4205    1.0000 </r>
       <r>    3.4722    1.0000 </r>
       <r>    3.5139    1.0000 </r>
       <r>    3.5879    1.0000 </r>
       <r>    3.6472    1.0000 </r>
       <r>    3.7133    1.0000 </r>
       <r>    3.8025    1.0000 </r>
       <r>    3.8465    1.0000 </r>
       <r>    3.9250    1.0000 </r>
       <r>    4.0014    1.0000 </r>
       <r>    4.0572    1.0000 </r>
       <r>    4.0801    1.0000 </r>
       <r>    4.1428    1.0000 </r>
       <r>    4.1934    1.0000 </r>
       <r>    4.2963    1.0000 </r>
       <r>    4.3796    1.0000 </r>
       <r>    4.4798    1.0000 </r>
       <r>    4.5343    1.0000 </r>
       <r>    4.5684    1.0000 </r>
       <r>    4.5781    1.0000 </r>
       <r>    4.6107    1.0000 </r>
       <r>    4.6301    1.0000 </r>
       <r>    4.6996    1.0000 </r>
       <r>    4.7124    1.0000 </r>
       <r>    4.7848    1.0000 </r>
       <r>    4.8134    1.0000 </r>
       <r>    4.8715    1.0000 </r>
       <r>    4.9276    1.0000 </r>
       <r>    4.9727    1.0000 </r>
       <r>    4.9920    1.0000 </r>
       <r>    5.0164    1.0000 </r>
       <r>    5.0259    1.0000 </r>
       <r>    5.1308    1.0000 </r>
       <r>    5.1618    1.0000 </r>
       <r>    5.1968    1.0000 </r>
       <r>    5.2648    1.0000 </r>
       <r>    5.2823    1.0000 </r>
       <r>    5.3277    1.0000 </r>
       <r>    5.3533    1.0000 </r>
       <r>    5.4503    1.0000 </r>
       <r>    5.5006    1.0000 </r>
       <r>    5.5125    1.0000 </r>
       <r>    5.5754    1.0000 </r>
       <r>    5.5927    1.0000 </r>
       <r>    5.6360    1.0000 </r>
       <r>    5.7462    1.0006 </r>
       <r>    5.7758    1.0012 </r>
       <r>    5.8218    1.0031 </r>
       <r>    5.8444    1.0048 </r>
       <r>    5.8934    1.0107 </r>
       <r>    5.9158    1.0147 </r>
       <r>    5.9743    1.0276 </r>
       <r>    5.9839    1.0297 </r>
       <r>    6.0198    1.0351 </r>
       <r>    6.0551    1.0325 </r>
       <r>    6.0892    1.0157 </r>
       <r>    6.1396    0.9505 </r>
       <r>    6.1695    0.8833 </r>
       <r>    6.2068    0.7686 </r>
       <r>    6.2352    0.6624 </r>
       <r>    6.2753    0.4963 </r>
       <r>    6.3101    0.3515 </r>
       <r>    6.3435    0.2260 </r>
       <r>    6.3873    0.0965 </r>
       <r>    6.4275    0.0193 </r>
       <r>    6.4394    0.0038 </r>
       <r>    6.4779   -0.0269 </r>
       <r>    6.5183   -0.0355 </r>
       <r>    6.5400   -0.0340 </r>
       <r>    6.6325   -0.0148 </r>
       <r>    6.6895   -0.0062 </r>
       <r>    6.8209   -0.0004 </r>
       <r>    6.8465   -0.0002 </r>
       <r>    6.8771   -0.0001 </r>
       <r>    6.9894   -0.0000 </r>
       <r>    7.2626   -0.0000 </r>
       <r>    7.4234   -0.0000 </r>
       <r>    7.6252   -0.0000 </r>
       <r>    7.6383   -0.0000 </r>
       <r>    7.6904   -0.0000 </r>
       <r>    7.7277   -0.0000 </r>
      </set>
      <set comment="kpoint 8">
       <r>  -47.7703    1.0000 </r>
       <r>  -47.7474    1.0000 </r>
       <r>  -47.7125    1.0000 </r>
       <r>  -47.6705    1.0000 </r>
       <r>  -47.6417    1.0000 </r>
       <r>  -47.5569    1.0000 </r>
       <r>  -24.3493    1.0000 </r>
       <r>  -24.2855    1.0000 </r>
       <r>  -24.1464    1.0000 </r>
       <r>  -24.1121    1.0000 </r>
       <r>  -23.9186    1.0000 </r>
       <r>  -23.9129    1.0000 </r>
       <r>  -23.9028    1.0000 </r>
       <r>  -23.8638    1.0000 </r>
       <r>  -23.8465    1.0000 </r>
       <r>  -23.8336    1.0000 </r>
       <r>  -23.8122    1.0000 </r>
       <r>  -23.7696    1.0000 </r>
       <r>  -23.7328    1.0000 </r>
       <r>  -23.7096    1.0000 </r>
       <r>  -23.5945    1.0000 </r>
       <r>  -23.5773    1.0000 </r>
       <r>  -23.4346    1.0000 </r>
       <r>  -23.3365    1.0000 </r>
       <r>    0.1186    1.0000 </r>
       <r>    1.2194    1.0000 </r>
       <r>    1.4657    1.0000 </r>
       <r>    1.6608    1.0000 </r>
       <r>    2.2138    1.0000 </r>
       <r>    2.5443    1.0000 </r>
       <r>    2.6345    1.0000 </r>
       <r>    2.7245    1.0000 </r>
       <r>    2.7550    1.0000 </r>
       <r>    2.7969    1.0000 </r>
       <r>    2.9314    1.0000 </r>
       <r>    2.9648    1.0000 </r>
       <r>    2.9764    1.0000 </r>
       <r>    3.0517    1.0000 </r>
       <r>    3.0740    1.0000 </r>
       <r>    3.1264    1.0000 </r>
       <r>    3.1783    1.0000 </r>
       <r>    3.2428    1.0000 </r>
       <r>    3.3228    1.0000 </r>
       <r>    3.3943    1.0000 </r>
       <r>    3.4664    1.0000 </r>
       <r>    3.5333    1.0000 </r>
       <r>    3.6081    1.0000 </r>
       <r>    3.7062    1.0000 </r>
       <r>    3.7516    1.0000 </r>
       <r>    3.8365    1.0000 </r>
       <r>    3.8691    1.0000 </r>
       <r>    3.9348    1.0000 </r>
       <r>    4.0004    1.0000 </r>
       <r>    4.0997    1.0000 </r>
       <r>    4.1525    1.0000 </r>
       <r>    4.2128    1.0000 </r>
       <r>    4.3941    1.0000 </r>
       <r>    4.4456    1.0000 </r>
       <r>    4.5159    1.0000 </r>
       <r>    4.5797    1.0000 </r>
       <r>    4.6647    1.0000 </r>
       <r>    4.7102    1.0000 </r>
       <r>    4.7406    1.0000 </r>
       <r>    4.8212    1.0000 </r>
       <r>    4.9013    1.0000 </r>
       <r>    4.9152    1.0000 </r>
       <r>    4.9838    1.0000 </r>
       <r>    5.0197    1.0000 </r>
       <r>    5.0489    1.0000 </r>
       <r>    5.0681    1.0000 </r>
       <r>    5.1630    1.0000 </r>
       <r>    5.1880    1.0000 </r>
       <r>    5.2013    1.0000 </r>
       <r>    5.2484    1.0000 </r>
       <r>    5.2792    1.0000 </r>
       <r>    5.3435    1.0000 </r>
       <r>    5.3711    1.0000 </r>
       <r>    5.3857    1.0000 </r>
       <r>    5.4142    1.0000 </r>
       <r>    5.4762    1.0000 </r>
       <r>    5.4933    1.0000 </r>
       <r>    5.5259    1.0000 </r>
       <r>    5.5527    1.0000 </r>
       <r>    5.6096    1.0000 </r>
       <r>    5.6942    1.0002 </r>
       <r>    5.7688    1.0010 </r>
       <r>    5.8187    1.0029 </r>
       <r>    5.8513    1.0054 </r>
       <r>    5.8966    1.0113 </r>
       <r>    5.9326    1.0182 </r>
       <r>    5.9882    1.0306 </r>
       <r>    6.0276    1.0354 </r>
       <r>    6.0553    1.0324 </r>
       <r>    6.1180    0.9853 </r>
       <r>    6.1680    0.8872 </r>
       <r>    6.1837    0.8434 </r>
       <r>    6.2261    0.6979 </r>
       <r>    6.2456    0.6204 </r>
       <r>    6.2854    0.4533 </r>
       <r>    6.3714    0.1381 </r>
       <r>    6.4074    0.0528 </r>
       <r>    6.4310    0.0144 </r>
       <r>    6.4629   -0.0181 </r>
       <r>    6.4924   -0.0321 </r>
       <r>    6.5329   -0.0348 </r>
       <r>    6.5893   -0.0242 </r>
       <r>    6.6266   -0.0160 </r>
       <r>    6.7167   -0.0038 </r>
       <r>    6.8368   -0.0003 </r>
       <r>    6.8838   -0.0001 </r>
       <r>    6.9676   -0.0000 </r>
       <r>    7.1549   -0.0000 </r>
       <r>    7.3614   -0.0000 </r>
       <r>    7.4833   -0.0000 </r>
       <r>    7.5186   -0.0000 </r>
       <r>    7.6105   -0.0000 </r>
       <r>    7.6751   -0.0000 </r>
       <r>    7.7486   -0.0000 </r>
       <r>    7.8007   -0.0000 </r>
       <r>    7.9305   -0.0000 </r>
      </set>
      <set comment="kpoint 9">
       <r>  -47.7720    1.0000 </r>
       <r>  -47.7523    1.0000 </r>
       <r>  -47.7148    1.0000 </r>
       <r>  -47.6717    1.0000 </r>
       <r>  -47.6424    1.0000 </r>
       <r>  -47.5465    1.0000 </r>
       <r>  -24.4357    1.0000 </r>
       <r>  -24.2968    1.0000 </r>
       <r>  -24.1500    1.0000 </r>
       <r>  -24.1163    1.0000 </r>
       <r>  -23.9172    1.0000 </r>
       <r>  -23.9115    1.0000 </r>
       <r>  -23.9075    1.0000 </r>
       <r>  -23.8624    1.0000 </r>
       <r>  -23.8475    1.0000 </r>
       <r>  -23.8298    1.0000 </r>
       <r>  -23.8101    1.0000 </r>
       <r>  -23.7671    1.0000 </r>
       <r>  -23.7236    1.0000 </r>
       <r>  -23.7073    1.0000 </r>
       <r>  -23.5924    1.0000 </r>
       <r>  -23.5748    1.0000 </r>
       <r>  -23.4332    1.0000 </r>
       <r>  -23.2215    1.0000 </r>
       <r>    0.0434    1.0000 </r>
       <r>    0.7988    1.0000 </r>
       <r>    1.1497    1.0000 </r>
       <r>    1.6271    1.0000 </r>
       <r>    1.9348    1.0000 </r>
       <r>    2.1973    1.0000 </r>
       <r>    2.4622    1.0000 </r>
       <r>    2.4914    1.0000 </r>
       <r>    2.6022    1.0000 </r>
       <r>    2.6485    1.0000 </r>
       <r>    2.7300    1.0000 </r>
       <r>    2.8531    1.0000 </r>
       <r>    2.8650    1.0000 </r>
       <r>    2.9275    1.0000 </r>
       <r>    2.9555    1.0000 </r>
       <r>    3.0116    1.0000 </r>
       <r>    3.0993    1.0000 </r>
       <r>    3.1827    1.0000 </r>
       <r>    3.2508    1.0000 </r>
       <r>    3.3570    1.0000 </r>
       <r>    3.4031    1.0000 </r>
       <r>    3.4566    1.0000 </r>
       <r>    3.4970    1.0000 </r>
       <r>    3.5540    1.0000 </r>
       <r>    3.6215    1.0000 </r>
       <r>    3.7322    1.0000 </r>
       <r>    3.8001    1.0000 </r>
       <r>    3.8392    1.0000 </r>
       <r>    3.8840    1.0000 </r>
       <r>    3.9380    1.0000 </r>
       <r>    4.0235    1.0000 </r>
       <r>    4.1419    1.0000 </r>
       <r>    4.4419    1.0000 </r>
       <r>    4.5144    1.0000 </r>
       <r>    4.5647    1.0000 </r>
       <r>    4.6219    1.0000 </r>
       <r>    4.6686    1.0000 </r>
       <r>    4.7286    1.0000 </r>
       <r>    4.8102    1.0000 </r>
       <r>    4.8482    1.0000 </r>
       <r>    4.8662    1.0000 </r>
       <r>    4.8972    1.0000 </r>
       <r>    4.9632    1.0000 </r>
       <r>    4.9937    1.0000 </r>
       <r>    5.0184    1.0000 </r>
       <r>    5.0559    1.0000 </r>
       <r>    5.0777    1.0000 </r>
       <r>    5.0986    1.0000 </r>
       <r>    5.1516    1.0000 </r>
       <r>    5.2089    1.0000 </r>
       <r>    5.2208    1.0000 </r>
       <r>    5.2609    1.0000 </r>
       <r>    5.2879    1.0000 </r>
       <r>    5.3641    1.0000 </r>
       <r>    5.4078    1.0000 </r>
       <r>    5.5288    1.0000 </r>
       <r>    5.5927    1.0000 </r>
       <r>    5.6836    1.0001 </r>
       <r>    5.7066    1.0002 </r>
       <r>    5.7606    1.0008 </r>
       <r>    5.7816    1.0014 </r>
       <r>    5.8481    1.0051 </r>
       <r>    5.8752    1.0081 </r>
       <r>    5.8907    1.0103 </r>
       <r>    5.9457    1.0211 </r>
       <r>    5.9712    1.0269 </r>
       <r>    5.9911    1.0311 </r>
       <r>    6.0184    1.0350 </r>
       <r>    6.0634    1.0299 </r>
       <r>    6.0996    1.0067 </r>
       <r>    6.1227    0.9787 </r>
       <r>    6.1716    0.8775 </r>
       <r>    6.2362    0.6582 </r>
       <r>    6.2919    0.4263 </r>
       <r>    6.3028    0.3812 </r>
       <r>    6.3492    0.2066 </r>
       <r>    6.4328    0.0120 </r>
       <r>    6.4496   -0.0070 </r>
       <r>    6.4808   -0.0282 </r>
       <r>    6.5327   -0.0348 </r>
       <r>    6.5697   -0.0287 </r>
       <r>    6.5978   -0.0223 </r>
       <r>    6.6664   -0.0091 </r>
       <r>    6.7586   -0.0016 </r>
       <r>    7.0612   -0.0000 </r>
       <r>    7.1386   -0.0000 </r>
       <r>    7.1616   -0.0000 </r>
       <r>    7.6500   -0.0000 </r>
       <r>    7.7395   -0.0000 </r>
       <r>    7.7869   -0.0000 </r>
       <r>    7.8579   -0.0000 </r>
       <r>    7.9030   -0.0000 </r>
       <r>    7.9711   -0.0000 </r>
       <r>    8.0056   -0.0000 </r>
       <r>    8.0507   -0.0000 </r>
       <r>    8.0902   -0.0000 </r>
      </set>
      <set comment="kpoint 10">
       <r>  -47.7705    1.0000 </r>
       <r>  -47.7475    1.0000 </r>
       <r>  -47.7125    1.0000 </r>
       <r>  -47.6702    1.0000 </r>
       <r>  -47.6416    1.0000 </r>
       <r>  -47.5569    1.0000 </r>
       <r>  -24.3495    1.0000 </r>
       <r>  -24.2868    1.0000 </r>
       <r>  -24.1519    1.0000 </r>
       <r>  -24.1131    1.0000 </r>
       <r>  -23.9186    1.0000 </r>
       <r>  -23.9129    1.0000 </r>
       <r>  -23.9028    1.0000 </r>
       <r>  -23.8639    1.0000 </r>
       <r>  -23.8464    1.0000 </r>
       <r>  -23.8335    1.0000 </r>
       <r>  -23.8123    1.0000 </r>
       <r>  -23.7696    1.0000 </r>
       <r>  -23.7327    1.0000 </r>
       <r>  -23.7095    1.0000 </r>
       <r>  -23.5903    1.0000 </r>
       <r>  -23.5729    1.0000 </r>
       <r>  -23.4342    1.0000 </r>
       <r>  -23.3365    1.0000 </r>
       <r>    0.1346    1.0000 </r>
       <r>    1.1528    1.0000 </r>
       <r>    1.4094    1.0000 </r>
       <r>    1.7468    1.0000 </r>
       <r>    2.2256    1.0000 </r>
       <r>    2.3981    1.0000 </r>
       <r>    2.5308    1.0000 </r>
       <r>    2.5996    1.0000 </r>
       <r>    2.6381    1.0000 </r>
       <r>    2.7426    1.0000 </r>
       <r>    2.8128    1.0000 </r>
       <r>    2.8807    1.0000 </r>
       <r>    2.9900    1.0000 </r>
       <r>    3.0467    1.0000 </r>
       <r>    3.0998    1.0000 </r>
       <r>    3.1308    1.0000 </r>
       <r>    3.1570    1.0000 </r>
       <r>    3.2848    1.0000 </r>
       <r>    3.3666    1.0000 </r>
       <r>    3.3924    1.0000 </r>
       <r>    3.4804    1.0000 </r>
       <r>    3.5694    1.0000 </r>
       <r>    3.6688    1.0000 </r>
       <r>    3.7230    1.0000 </r>
       <r>    3.8009    1.0000 </r>
       <r>    3.8301    1.0000 </r>
       <r>    3.9601    1.0000 </r>
       <r>    3.9866    1.0000 </r>
       <r>    4.0365    1.0000 </r>
       <r>    4.0752    1.0000 </r>
       <r>    4.1270    1.0000 </r>
       <r>    4.2625    1.0000 </r>
       <r>    4.3578    1.0000 </r>
       <r>    4.5109    1.0000 </r>
       <r>    4.5631    1.0000 </r>
       <r>    4.6053    1.0000 </r>
       <r>    4.6297    1.0000 </r>
       <r>    4.6794    1.0000 </r>
       <r>    4.7897    1.0000 </r>
       <r>    4.8167    1.0000 </r>
       <r>    4.8423    1.0000 </r>
       <r>    4.8836    1.0000 </r>
       <r>    4.9042    1.0000 </r>
       <r>    4.9752    1.0000 </r>
       <r>    5.0007    1.0000 </r>
       <r>    5.0339    1.0000 </r>
       <r>    5.0780    1.0000 </r>
       <r>    5.1024    1.0000 </r>
       <r>    5.1455    1.0000 </r>
       <r>    5.2122    1.0000 </r>
       <r>    5.2504    1.0000 </r>
       <r>    5.3079    1.0000 </r>
       <r>    5.3226    1.0000 </r>
       <r>    5.3746    1.0000 </r>
       <r>    5.4293    1.0000 </r>
       <r>    5.5215    1.0000 </r>
       <r>    5.5555    1.0000 </r>
       <r>    5.5961    1.0000 </r>
       <r>    5.6410    1.0000 </r>
       <r>    5.6989    1.0002 </r>
       <r>    5.7381    1.0005 </r>
       <r>    5.7810    1.0013 </r>
       <r>    5.8103    1.0025 </r>
       <r>    5.8334    1.0039 </r>
       <r>    5.8804    1.0088 </r>
       <r>    5.9045    1.0126 </r>
       <r>    5.9346    1.0186 </r>
       <r>    5.9932    1.0315 </r>
       <r>    6.0260    1.0354 </r>
       <r>    6.0671    1.0285 </r>
       <r>    6.0919    1.0135 </r>
       <r>    6.1379    0.9536 </r>
       <r>    6.1689    0.8848 </r>
       <r>    6.2450    0.6227 </r>
       <r>    6.2679    0.5275 </r>
       <r>    6.3291    0.2778 </r>
       <r>    6.3791    0.1172 </r>
       <r>    6.4623   -0.0177 </r>
       <r>    6.5418   -0.0338 </r>
       <r>    6.5871   -0.0248 </r>
       <r>    6.6025   -0.0212 </r>
       <r>    6.6757   -0.0078 </r>
       <r>    6.7217   -0.0035 </r>
       <r>    6.7622   -0.0015 </r>
       <r>    6.9311   -0.0000 </r>
       <r>    6.9902   -0.0000 </r>
       <r>    7.0989   -0.0000 </r>
       <r>    7.2492   -0.0000 </r>
       <r>    7.3621   -0.0000 </r>
       <r>    7.7232   -0.0000 </r>
       <r>    7.7973   -0.0000 </r>
       <r>    7.8194   -0.0000 </r>
       <r>    7.8867   -0.0000 </r>
       <r>    7.9116   -0.0000 </r>
       <r>    7.9558   -0.0000 </r>
       <r>    8.0427   -0.0000 </r>
      </set>
[...]
       <r>    4.6286    1.0000 </r>
       <r>    4.6799    1.0000 </r>
       <r>    4.6950    1.0000 </r>
       <r>    4.7424    1.0000 </r>
       <r>    4.8004    1.0000 </r>
       <r>    4.8303    1.0000 </r>
       <r>    4.8790    1.0000 </r>
       <r>    4.9363    1.0000 </r>
       <r>    4.9796    1.0000 </r>
       <r>    4.9943    1.0000 </r>
       <r>    5.0995    1.0000 </r>
       <r>    5.1489    1.0000 </r>
       <r>    5.1828    1.0000 </r>
       <r>    5.2070    1.0000 </r>
       <r>    5.2931    1.0000 </r>
       <r>    5.3326    1.0000 </r>
       <r>    5.3667    1.0000 </r>
       <r>    5.3952    1.0000 </r>
       <r>    5.4516    1.0000 </r>
       <r>    5.4853    1.0000 </r>
       <r>    5.5540    1.0000 </r>
       <r>    5.5902    1.0000 </r>
       <r>    5.6452    1.0000 </r>
       <r>    5.6884    1.0001 </r>
       <r>    5.7256    1.0004 </r>
       <r>    5.7530    1.0007 </r>
       <r>    5.8130    1.0026 </r>
       <r>    5.8224    1.0032 </r>
       <r>    5.8681    1.0072 </r>
       <r>    5.9019    1.0122 </r>
       <r>    5.9224    1.0160 </r>
       <r>    5.9489    1.0218 </r>
       <r>    6.0058    1.0336 </r>
       <r>    6.0361    1.0353 </r>
       <r>    6.0535    1.0328 </r>
       <r>    6.0836    1.0197 </r>
       <r>    6.1062    0.9998 </r>
       <r>    6.1463    0.9372 </r>
       <r>    6.1651    0.8945 </r>
       <r>    6.2956    0.4107 </r>
       <r>    6.3465    0.2157 </r>
       <r>    6.4523   -0.0095 </r>
       <r>    6.4783   -0.0270 </r>
       <r>    6.5516   -0.0323 </r>
       <r>    6.5723   -0.0281 </r>
       <r>    6.6664   -0.0091 </r>
       <r>    6.7495   -0.0020 </r>
       <r>    6.8277   -0.0003 </r>
       <r>    7.1394   -0.0000 </r>
       <r>    7.2422   -0.0000 </r>
       <r>    7.2873   -0.0000 </r>
       <r>    7.3303   -0.0000 </r>
       <r>    7.4037   -0.0000 </r>
       <r>    7.8613   -0.0000 </r>
       <r>    7.9190   -0.0000 </r>
       <r>    7.9761   -0.0000 </r>
       <r>    8.0683   -0.0000 </r>
       <r>    8.0965   -0.0000 </r>
       <r>    8.1501   -0.0000 </r>
       <r>    8.1932   -0.0000 </r>
      </set>
     </set>
    </set>
   </array>
  </eigenvalues>
  <separator name="orbital magnetization" >
   <v name="MAGDIPOLOUT">      0.00000000      0.00000000      0.00000000</v>
  </separator>
  <dos>
   <i name="efermi">      6.27437936 </i>
   <total>
    <array>
     <dimension dim="1">gridpoints</dimension>
     <dimension dim="2">spin</dimension>
     <field>energy</field>
     <field>total</field>
     <field>integrated</field>
     <set>
      <set comment="spin 1">
       <r>   -50.5786     0.0000     0.0000 </r>
       <r>   -50.3728     0.0000     0.0000 </r>
       <r>   -50.1670     0.0000     0.0000 </r>
       <r>   -49.9612     0.0000     0.0000 </r>
       <r>   -49.7554     0.0000     0.0000 </r>
       <r>   -49.5496    -0.0000    -0.0000 </r>
       <r>   -49.3438    -0.0000    -0.0000 </r>
       <r>   -49.1381    -0.0000    -0.0000 </r>
       <r>   -48.9323    -0.0000    -0.0000 </r>
       <r>   -48.7265    -0.0000    -0.0000 </r>
       <r>   -48.5207    -0.0000    -0.0000 </r>
       <r>   -48.3149    -0.0071    -0.0015 </r>
       <r>   -48.1091    -0.4533    -0.0947 </r>
       <r>   -47.9033     0.0391    -0.0867 </r>
       <r>   -47.6975    27.0587     5.4818 </r>
       <r>   -47.4917    30.3437    11.7263 </r>
       <r>   -47.2859     1.9857    12.1350 </r>
       <r>   -47.0801    -0.6347    12.0044 </r>
       <r>   -46.8743    -0.0212    12.0000 </r>
       <r>   -46.6685    -0.0001    12.0000 </r>
       <r>   -46.4627    -0.0000    12.0000 </r>
       <r>   -46.2569    -0.0000    12.0000 </r>
       <r>   -46.0512     0.0000    12.0000 </r>
       <r>   -45.8454     0.0000    12.0000 </r>
       <r>   -45.6396     0.0000    12.0000 </r>
       <r>   -45.4338     0.0000    12.0000 </r>
       <r>   -45.2280     0.0000    12.0000 </r>
       <r>   -45.0222     0.0000    12.0000 </r>
       <r>   -44.8164     0.0000    12.0000 </r>
       <r>   -44.6106     0.0000    12.0000 </r>
       <r>   -44.4048     0.0000    12.0000 </r>
       <r>   -44.1990     0.0000    12.0000 </r>
       <r>   -43.9932     0.0000    12.0000 </r>
       <r>   -43.7874     0.0000    12.0000 </r>
       <r>   -43.5816     0.0000    12.0000 </r>
       <r>   -43.3758     0.0000    12.0000 </r>
       <r>   -43.1700     0.0000    12.0000 </r>
       <r>   -42.9643     0.0000    12.0000 </r>
       <r>   -42.7585     0.0000    12.0000 </r>
       <r>   -42.5527     0.0000    12.0000 </r>
       <r>   -42.3469     0.0000    12.0000 </r>
       <r>   -42.1411     0.0000    12.0000 </r>
       <r>   -41.9353     0.0000    12.0000 </r>
       <r>   -41.7295     0.0000    12.0000 </r>
       <r>   -41.5237     0.0000    12.0000 </r>
       <r>   -41.3179     0.0000    12.0000 </r>
       <r>   -41.1121     0.0000    12.0000 </r>
       <r>   -40.9063     0.0000    12.0000 </r>
       <r>   -40.7005     0.0000    12.0000 </r>
       <r>   -40.4947     0.0000    12.0000 </r>
       <r>   -40.2889     0.0000    12.0000 </r>
       <r>   -40.0831     0.0000    12.0000 </r>
       <r>   -39.8774     0.0000    12.0000 </r>
       <r>   -39.6716     0.0000    12.0000 </r>
       <r>   -39.4658     0.0000    12.0000 </r>
       <r>   -39.2600     0.0000    12.0000 </r>
       <r>   -39.0542     0.0000    12.0000 </r>
       <r>   -38.8484     0.0000    12.0000 </r>
       <r>   -38.6426     0.0000    12.0000 </r>
       <r>   -38.4368     0.0000    12.0000 </r>
       <r>   -38.2310     0.0000    12.0000 </r>
       <r>   -38.0252     0.0000    12.0000 </r>
       <r>   -37.8194     0.0000    12.0000 </r>
       <r>   -37.6136     0.0000    12.0000 </r>
       <r>   -37.4078     0.0000    12.0000 </r>
       <r>   -37.2020     0.0000    12.0000 </r>
       <r>   -36.9963     0.0000    12.0000 </r>
       <r>   -36.7905     0.0000    12.0000 </r>
       <r>   -36.5847     0.0000    12.0000 </r>
       <r>   -36.3789     0.0000    12.0000 </r>
       <r>   -36.1731     0.0000    12.0000 </r>
       <r>   -35.9673     0.0000    12.0000 </r>
       <r>   -35.7615     0.0000    12.0000 </r>
       <r>   -35.5557     0.0000    12.0000 </r>
       <r>   -35.3499     0.0000    12.0000 </r>
       <r>   -35.1441     0.0000    12.0000 </r>
       <r>   -34.9383     0.0000    12.0000 </r>
       <r>   -34.7325     0.0000    12.0000 </r>
       <r>   -34.5267     0.0000    12.0000 </r>
       <r>   -34.3209     0.0000    12.0000 </r>
       <r>   -34.1151     0.0000    12.0000 </r>
       <r>   -33.9094     0.0000    12.0000 </r>
       <r>   -33.7036     0.0000    12.0000 </r>
       <r>   -33.4978     0.0000    12.0000 </r>
       <r>   -33.2920     0.0000    12.0000 </r>
       <r>   -33.0862     0.0000    12.0000 </r>
       <r>   -32.8804     0.0000    12.0000 </r>
       <r>   -32.6746     0.0000    12.0000 </r>
       <r>   -32.4688     0.0000    12.0000 </r>
       <r>   -32.2630     0.0000    12.0000 </r>
       <r>   -32.0572     0.0000    12.0000 </r>
       <r>   -31.8514     0.0000    12.0000 </r>
       <r>   -31.6456     0.0000    12.0000 </r>
       <r>   -31.4398     0.0000    12.0000 </r>
       <r>   -31.2340     0.0000    12.0000 </r>
       <r>   -31.0282     0.0000    12.0000 </r>
       <r>   -30.8225     0.0000    12.0000 </r>
       <r>   -30.6167     0.0000    12.0000 </r>
       <r>   -30.4109     0.0000    12.0000 </r>
       <r>   -30.2051     0.0000    12.0000 </r>
       <r>   -29.9993     0.0000    12.0000 </r>
       <r>   -29.7935     0.0000    12.0000 </r>
       <r>   -29.5877     0.0000    12.0000 </r>
       <r>   -29.3819     0.0000    12.0000 </r>
       <r>   -29.1761     0.0000    12.0000 </r>
       <r>   -28.9703     0.0000    12.0000 </r>
       <r>   -28.7645     0.0000    12.0000 </r>
       <r>   -28.5587     0.0000    12.0000 </r>
       <r>   -28.3529     0.0000    12.0000 </r>
       <r>   -28.1471     0.0000    12.0000 </r>
       <r>   -27.9413     0.0000    12.0000 </r>
       <r>   -27.7356     0.0000    12.0000 </r>
       <r>   -27.5298     0.0000    12.0000 </r>
       <r>   -27.3240     0.0000    12.0000 </r>
       <r>   -27.1182     0.0000    12.0000 </r>
       <r>   -26.9124     0.0000    12.0000 </r>
       <r>   -26.7066     0.0000    12.0000 </r>
       <r>   -26.5008     0.0000    12.0000 </r>
       <r>   -26.2950     0.0000    12.0000 </r>
       <r>   -26.0892    -0.0000    12.0000 </r>
       <r>   -25.8834    -0.0000    12.0000 </r>
       <r>   -25.6776    -0.0000    12.0000 </r>
       <r>   -25.4718    -0.0000    12.0000 </r>
       <r>   -25.2660    -0.0000    12.0000 </r>
       <r>   -25.0602    -0.0001    12.0000 </r>
       <r>   -24.8545    -0.0183    11.9962 </r>
       <r>   -24.6487    -0.3295    11.9284 </r>
       <r>   -24.4429     1.5976    12.2572 </r>
       <r>   -24.2371    13.1802    14.9696 </r>
       <r>   -24.0313    21.1682    19.3258 </r>
       <r>   -23.8255    54.0773    30.4546 </r>
       <r>   -23.6197    54.6130    41.6936 </r>
       <r>   -23.4139    22.3487    46.2928 </r>
       <r>   -23.2081     7.7964    47.8972 </r>
       <r>   -23.0023     0.6899    48.0392 </r>
       <r>   -22.7965    -0.1782    48.0025 </r>
       <r>   -22.5907    -0.0122    48.0000 </r>
       <r>   -22.3849    -0.0001    48.0000 </r>
       <r>   -22.1791    -0.0000    48.0000 </r>
       <r>   -21.9733    -0.0000    48.0000 </r>
       <r>   -21.7676     0.0000    48.0000 </r>
       <r>   -21.5618     0.0000    48.0000 </r>
       <r>   -21.3560     0.0000    48.0000 </r>
       <r>   -21.1502     0.0000    48.0000 </r>
       <r>   -20.9444     0.0000    48.0000 </r>
       <r>   -20.7386     0.0000    48.0000 </r>
       <r>   -20.5328     0.0000    48.0000 </r>
       <r>   -20.3270     0.0000    48.0000 </r>
       <r>   -20.1212     0.0000    48.0000 </r>
       <r>   -19.9154     0.0000    48.0000 </r>
       <r>   -19.7096     0.0000    48.0000 </r>
       <r>   -19.5038     0.0000    48.0000 </r>
       <r>   -19.2980     0.0000    48.0000 </r>
       <r>   -19.0922     0.0000    48.0000 </r>
       <r>   -18.8864     0.0000    48.0000 </r>
       <r>   -18.6807     0.0000    48.0000 </r>
       <r>   -18.4749     0.0000    48.0000 </r>
       <r>   -18.2691     0.0000    48.0000 </r>
       <r>   -18.0633     0.0000    48.0000 </r>
       <r>   -17.8575     0.0000    48.0000 </r>
       <r>   -17.6517     0.0000    48.0000 </r>
       <r>   -17.4459     0.0000    48.0000 </r>
       <r>   -17.2401     0.0000    48.0000 </r>
       <r>   -17.0343     0.0000    48.0000 </r>
       <r>   -16.8285     0.0000    48.0000 </r>
       <r>   -16.6227     0.0000    48.0000 </r>
       <r>   -16.4169     0.0000    48.0000 </r>
       <r>   -16.2111     0.0000    48.0000 </r>
       <r>   -16.0053     0.0000    48.0000 </r>
       <r>   -15.7995     0.0000    48.0000 </r>
       <r>   -15.5938     0.0000    48.0000 </r>
       <r>   -15.3880     0.0000    48.0000 </r>
       <r>   -15.1822     0.0000    48.0000 </r>
       <r>   -14.9764     0.0000    48.0000 </r>
       <r>   -14.7706     0.0000    48.0000 </r>
       <r>   -14.5648     0.0000    48.0000 </r>
       <r>   -14.3590     0.0000    48.0000 </r>
       <r>   -14.1532     0.0000    48.0000 </r>
       <r>   -13.9474     0.0000    48.0000 </r>
       <r>   -13.7416     0.0000    48.0000 </r>
       <r>   -13.5358     0.0000    48.0000 </r>
       <r>   -13.3300     0.0000    48.0000 </r>
       <r>   -13.1242     0.0000    48.0000 </r>
       <r>   -12.9184     0.0000    48.0000 </r>
       <r>   -12.7127     0.0000    48.0000 </r>
       <r>   -12.5069     0.0000    48.0000 </r>
       <r>   -12.3011     0.0000    48.0000 </r>
       <r>   -12.0953     0.0000    48.0000 </r>
       <r>   -11.8895     0.0000    48.0000 </r>
       <r>   -11.6837     0.0000    48.0000 </r>
       <r>   -11.4779     0.0000    48.0000 </r>
       <r>   -11.2721     0.0000    48.0000 </r>
       <r>   -11.0663     0.0000    48.0000 </r>
       <r>   -10.8605     0.0000    48.0000 </r>
       <r>   -10.6547     0.0000    48.0000 </r>
       <r>   -10.4489     0.0000    48.0000 </r>
       <r>   -10.2431     0.0000    48.0000 </r>
       <r>   -10.0373     0.0000    48.0000 </r>
       <r>    -9.8315     0.0000    48.0000 </r>
       <r>    -9.6258     0.0000    48.0000 </r>
       <r>    -9.4200     0.0000    48.0000 </r>
       <r>    -9.2142     0.0000    48.0000 </r>
       <r>    -9.0084     0.0000    48.0000 </r>
       <r>    -8.8026     0.0000    48.0000 </r>
       <r>    -8.5968     0.0000    48.0000 </r>
       <r>    -8.3910     0.0000    48.0000 </r>
       <r>    -8.1852     0.0000    48.0000 </r>
       <r>    -7.9794     0.0000    48.0000 </r>
       <r>    -7.7736     0.0000    48.0000 </r>
       <r>    -7.5678     0.0000    48.0000 </r>
       <r>    -7.3620     0.0000    48.0000 </r>
       <r>    -7.1562     0.0000    48.0000 </r>
       <r>    -6.9504     0.0000    48.0000 </r>
       <r>    -6.7446     0.0000    48.0000 </r>
       <r>    -6.5389     0.0000    48.0000 </r>
       <r>    -6.3331     0.0000    48.0000 </r>
       <r>    -6.1273     0.0000    48.0000 </r>
       <r>    -5.9215     0.0000    48.0000 </r>
       <r>    -5.7157     0.0000    48.0000 </r>
       <r>    -5.5099     0.0000    48.0000 </r>
       <r>    -5.3041     0.0000    48.0000 </r>
       <r>    -5.0983     0.0000    48.0000 </r>
       <r>    -4.8925     0.0000    48.0000 </r>
       <r>    -4.6867     0.0000    48.0000 </r>
       <r>    -4.4809     0.0000    48.0000 </r>
       <r>    -4.2751     0.0000    48.0000 </r>
       <r>    -4.0693     0.0000    48.0000 </r>
       <r>    -3.8635     0.0000    48.0000 </r>
       <r>    -3.6577     0.0000    48.0000 </r>
       <r>    -3.4520     0.0000    48.0000 </r>
       <r>    -3.2462     0.0000    48.0000 </r>
       <r>    -3.0404     0.0000    48.0000 </r>
       <r>    -2.8346     0.0000    48.0000 </r>
       <r>    -2.6288     0.0000    48.0000 </r>
       <r>    -2.4230     0.0000    48.0000 </r>
       <r>    -2.2172    -0.0000    48.0000 </r>
       <r>    -2.0114    -0.0000    48.0000 </r>
       <r>    -1.8056    -0.0000    48.0000 </r>
       <r>    -1.5998    -0.0000    48.0000 </r>
       <r>    -1.3940    -0.0000    48.0000 </r>
       <r>    -1.1882    -0.0000    48.0000 </r>
       <r>    -0.9824    -0.0000    48.0000 </r>
       <r>    -0.7766    -0.0024    47.9995 </r>
       <r>    -0.5709    -0.0154    47.9963 </r>
       <r>    -0.3651     0.1528    48.0278 </r>
       <r>    -0.1593     0.7555    48.1832 </r>
       <r>     0.0465     1.5410    48.5004 </r>
       <r>     0.2523     2.0357    48.9193 </r>
       <r>     0.4581     1.5832    49.2451 </r>
       <r>     0.6639     2.1492    49.6874 </r>
       <r>     0.8697     3.2021    50.3464 </r>
       <r>     1.0755     3.6510    51.0977 </r>
       <r>     1.2813     2.7958    51.6731 </r>
       <r>     1.4871     3.6239    52.4189 </r>
       <r>     1.6929     4.8944    53.4261 </r>
       <r>     1.8987     5.1035    54.4764 </r>
       <r>     2.1045     6.7537    55.8663 </r>
       <r>     2.3103     8.5483    57.6254 </r>
       <r>     2.5160    12.6030    60.2190 </r>
       <r>     2.7218    20.0004    64.3350 </r>
       <r>     2.9276    24.1597    69.3069 </r>
       <r>     3.1334    28.6532    75.2035 </r>
       <r>     3.3392    31.2673    81.6381 </r>
       <r>     3.5450    31.4693    88.1143 </r>
       <r>     3.7508    32.8176    94.8679 </r>
       <r>     3.9566    32.7252   101.6026 </r>
       <r>     4.1624    29.3576   107.6442 </r>
       <r>     4.3682    23.1364   112.4055 </r>
       <r>     4.5740    28.7177   118.3154 </r>
       <r>     4.7798    39.1938   126.3812 </r>
       <r>     4.9856    46.3429   135.9183 </r>
       <r>     5.1914    47.8756   145.7707 </r>
       <r>     5.3972    45.8276   155.2017 </r>
       <r>     5.6029    42.9988   164.0506 </r>
       <r>     5.8087    46.9265   173.7078 </r>
       <r>     6.0145    52.4670   184.5051 </r>
       <r>     6.2203    52.7648   195.3637 </r>
       <r>     6.4261    46.2290   204.8774 </r>
       <r>     6.6319    36.7433   212.4389 </r>
       <r>     6.8377    23.3521   217.2446 </r>
       <r>     7.0435    14.4022   220.2085 </r>
       <r>     7.2493    13.5077   222.9883 </r>
       <r>     7.4551    16.6154   226.4076 </r>
       <r>     7.6609    19.6090   230.4430 </r>
       <r>     7.8667    21.4142   234.8499 </r>
       <r>     8.0725    16.6467   238.2756 </r>
       <r>     8.2783     7.5970   239.8391 </r>
       <r>     8.4841     0.9612   240.0369 </r>
       <r>     8.6898    -0.1644   240.0030 </r>
       <r>     8.8956    -0.0145   240.0000 </r>
       <r>     9.1014    -0.0002   240.0000 </r>
       <r>     9.3072    -0.0000   240.0000 </r>
       <r>     9.5130    -0.0000   240.0000 </r>
       <r>     9.7188    -0.0000   240.0000 </r>
       <r>     9.9246     0.0000   240.0000 </r>
       <r>    10.1304     0.0000   240.0000 </r>
       <r>    10.3362     0.0000   240.0000 </r>
       <r>    10.5420     0.0000   240.0000 </r>
       <r>    10.7478     0.0000   240.0000 </r>
       <r>    10.9536     0.0000   240.0000 </r>
       <r>    11.1594     0.0000   240.0000 </r>
      </set>
     </set>
    </array>
   </total>
  </dos>
 </calculation>
 <structure name="finalpos" >
  <crystal>
   <varray name="basis" >
    <v>      -3.21000000      -3.21000000      -3.21000000 </v>
    <v>       1.60500000       1.60500000      -8.02500000 </v>
    <v>       8.02500000      -8.02500000      -1.60500000 </v>
   </varray>
   <i name="volume">    496.14241500 </i>
   <varray name="rec_basis" >
    <v>      -0.13499481      -0.12461059      -0.05192108 </v>
    <v>       0.04153686       0.06230530      -0.10384216 </v>
    <v>       0.06230530      -0.06230530       0.00000000 </v>
   </varray>
  </crystal>
  <varray name="positions" >
   <v>       0.96666667       0.93333333       0.40000000 </v>
   <v>       0.63333333       0.26666667       0.40000000 </v>
   <v>       0.50000000       0.00000000       0.00000000 </v>
   <v>       0.00000000       0.00000000       0.00000000 </v>
   <v>       0.10000000       0.20000000       0.80000000 </v>
   <v>       0.03333333       0.06666667       0.60000000 </v>
   <v>       0.90000000       0.80000000       0.20000000 </v>
   <v>       0.80000000       0.60000000       0.40000000 </v>
   <v>       0.73333333       0.46666667       0.20000000 </v>
   <v>       0.66666667       0.33333333       0.00000000 </v>
   <v>       0.36666667       0.73333333       0.60000000 </v>
   <v>       0.13333333       0.26666667       0.40000000 </v>
   <v>       0.83333333       0.66666667       0.00000000 </v>
   <v>       0.93333333       0.86666667       0.80000000 </v>
   <v>       0.56666667       0.13333333       0.20000000 </v>
   <v>       0.40000000       0.80000000       0.20000000 </v>
   <v>       0.43333333       0.86666667       0.80000000 </v>
   <v>       0.30000000       0.60000000       0.40000000 </v>
   <v>       0.86666667       0.73333333       0.60000000 </v>
   <v>       0.46666667       0.93333333       0.40000000 </v>
   <v>       0.16666667       0.33333333       0.00000000 </v>
   <v>       0.26666667       0.53333333       0.80000000 </v>
   <v>       0.20000000       0.40000000       0.60000000 </v>
   <v>       0.06666667       0.13333333       0.20000000 </v>
   <v>       0.76666667       0.53333333       0.80000000 </v>
   <v>       0.70000000       0.40000000       0.60000000 </v>
   <v>       0.60000000       0.20000000       0.80000000 </v>
   <v>       0.53333333       0.06666667       0.60000000 </v>
   <v>       0.33333333       0.66666667       0.00000000 </v>
   <v>       0.23333333       0.46666667       0.20000000 </v>
  </varray>
 </structure>
</modeling>
