  30  30   0   0
  0.1653808E+02  0.6420000E-09  0.8339825E-09  0.1015091E-08  0.5000000E-15
  1.000000000000000E-004
  CAR 
 Nb - Mo - Ta - Ti - W SQS               
     12.06786963    -50.14518079  301      6.71136021      1.00000000
    -50.145  0.0000E+00  0.0000E+00
    -49.938  0.0000E+00  0.0000E+00
    -49.730  0.0000E+00  0.0000E+00
    -49.523  0.0000E+00  0.0000E+00
    -49.316  0.0000E+00  0.0000E+00
    -49.108 -0.4981E-33 -0.1033E-33
    -48.901 -0.1850E-25 -0.3837E-26
    -48.694 -0.7804E-19 -0.1618E-19
    -48.486 -0.3669E-13 -0.7609E-14
    -48.279 -0.1999E-08 -0.4145E-09
    -48.071 -0.1218E-04 -0.2526E-05
    -47.864 -0.7998E-02 -0.1661E-02
    -47.657 -0.4923E+00 -0.1037E+00
    -47.449  0.4596E+00 -0.8450E-02
    -47.242  0.2794E+02  0.5786E+01
    -47.035  0.2891E+02  0.1178E+02
    -46.827  0.1659E+01  0.1213E+02
    -46.620 -0.5875E+00  0.1200E+02
    -46.412 -0.1644E-01  0.1200E+02
    -46.205 -0.4406E-04  0.1200E+02
    -45.998 -0.1296E-07  0.1200E+02
    -45.790 -0.4302E-12  0.1200E+02
    -45.583  0.0000E+00  0.1200E+02
    -45.376  0.0000E+00  0.1200E+02
    -45.168  0.0000E+00  0.1200E+02
    -44.961  0.0000E+00  0.1200E+02
    -44.753  0.0000E+00  0.1200E+02
    -44.546  0.0000E+00  0.1200E+02
    -44.339  0.0000E+00  0.1200E+02
    -44.131  0.0000E+00  0.1200E+02
    -43.924  0.0000E+00  0.1200E+02
    -43.716  0.0000E+00  0.1200E+02
    -43.509  0.0000E+00  0.1200E+02
    -43.302  0.0000E+00  0.1200E+02
    -43.094  0.0000E+00  0.1200E+02
    -42.887  0.0000E+00  0.1200E+02
    -42.680  0.0000E+00  0.1200E+02
    -42.472  0.0000E+00  0.1200E+02
    -42.265  0.0000E+00  0.1200E+02
    -42.057  0.0000E+00  0.1200E+02
    -41.850  0.0000E+00  0.1200E+02
    -41.643  0.0000E+00  0.1200E+02
    -41.435  0.0000E+00  0.1200E+02
    -41.228  0.0000E+00  0.1200E+02
    -41.021  0.0000E+00  0.1200E+02
    -40.813  0.0000E+00  0.1200E+02
    -40.606  0.0000E+00  0.1200E+02
    -40.398  0.0000E+00  0.1200E+02
    -40.191  0.0000E+00  0.1200E+02
    -39.984  0.0000E+00  0.1200E+02
    -39.776  0.0000E+00  0.1200E+02
    -39.569  0.0000E+00  0.1200E+02
    -39.362  0.0000E+00  0.1200E+02
    -39.154  0.0000E+00  0.1200E+02
    -38.947  0.0000E+00  0.1200E+02
    -38.739  0.0000E+00  0.1200E+02
    -38.532  0.0000E+00  0.1200E+02
    -38.325  0.0000E+00  0.1200E+02
    -38.117  0.0000E+00  0.1200E+02
    -37.910  0.0000E+00  0.1200E+02
    -37.703  0.0000E+00  0.1200E+02
    -37.495  0.0000E+00  0.1200E+02
    -37.288  0.0000E+00  0.1200E+02
    -37.080  0.0000E+00  0.1200E+02
    -36.873  0.0000E+00  0.1200E+02
    -36.666  0.0000E+00  0.1200E+02
    -36.458  0.0000E+00  0.1200E+02
    -36.251  0.0000E+00  0.1200E+02
    -36.044  0.0000E+00  0.1200E+02
    -35.836  0.0000E+00  0.1200E+02
    -35.629  0.0000E+00  0.1200E+02
    -35.421  0.0000E+00  0.1200E+02
    -35.214  0.0000E+00  0.1200E+02
    -35.007  0.0000E+00  0.1200E+02
    -34.799  0.0000E+00  0.1200E+02
    -34.592  0.0000E+00  0.1200E+02
    -34.385  0.0000E+00  0.1200E+02
    -34.177  0.0000E+00  0.1200E+02
    -33.970  0.0000E+00  0.1200E+02
    -33.762  0.0000E+00  0.1200E+02
    -33.555  0.0000E+00  0.1200E+02
    -33.348  0.0000E+00  0.1200E+02
    -33.140  0.0000E+00  0.1200E+02
    -32.933  0.0000E+00  0.1200E+02
    -32.726  0.0000E+00  0.1200E+02
    -32.518  0.0000E+00  0.1200E+02
    -32.311  0.0000E+00  0.1200E+02
    -32.103  0.0000E+00  0.1200E+02
    -31.896  0.0000E+00  0.1200E+02
    -31.689  0.0000E+00  0.1200E+02
    -31.481  0.0000E+00  0.1200E+02
    -31.274  0.0000E+00  0.1200E+02
    -31.067  0.0000E+00  0.1200E+02
    -30.859  0.0000E+00  0.1200E+02
    -30.652  0.0000E+00  0.1200E+02
    -30.444  0.0000E+00  0.1200E+02
    -30.237  0.0000E+00  0.1200E+02
    -30.030  0.0000E+00  0.1200E+02
    -29.822  0.0000E+00  0.1200E+02
    -29.615  0.0000E+00  0.1200E+02
    -29.407  0.0000E+00  0.1200E+02
    -29.200  0.0000E+00  0.1200E+02
    -28.993  0.0000E+00  0.1200E+02
    -28.785  0.0000E+00  0.1200E+02
    -28.578  0.0000E+00  0.1200E+02
    -28.371  0.0000E+00  0.1200E+02
    -28.163  0.0000E+00  0.1200E+02
    -27.956  0.0000E+00  0.1200E+02
    -27.748  0.0000E+00  0.1200E+02
    -27.541  0.0000E+00  0.1200E+02
    -27.334  0.0000E+00  0.1200E+02
    -27.126  0.0000E+00  0.1200E+02
    -26.919  0.0000E+00  0.1200E+02
    -26.712  0.0000E+00  0.1200E+02
    -26.504  0.0000E+00  0.1200E+02
    -26.297  0.0000E+00  0.1200E+02
    -26.089  0.0000E+00  0.1200E+02
    -25.882  0.0000E+00  0.1200E+02
    -25.675  0.0000E+00  0.1200E+02
    -25.467 -0.8202E-27  0.1200E+02
    -25.260 -0.4741E-20  0.1200E+02
    -25.053 -0.3136E-14  0.1200E+02
    -24.845 -0.2271E-09  0.1200E+02
    -24.638 -0.1897E-05  0.1200E+02
    -24.430 -0.1740E-02  0.1200E+02
    -24.223 -0.1606E+00  0.1197E+02
    -24.016 -0.5320E+00  0.1186E+02
    -23.808  0.1110E+02  0.1416E+02
    -23.601  0.2534E+02  0.1941E+02
    -23.394  0.5648E+02  0.3113E+02
    -23.186  0.5064E+02  0.4163E+02
    -22.979  0.2401E+02  0.4661E+02
    -22.771  0.7190E+01  0.4810E+02
    -22.564 -0.3428E+00  0.4803E+02
    -22.357 -0.1209E+00  0.4800E+02
    -22.149 -0.1453E-02  0.4800E+02
    -21.942 -0.1660E-05  0.4800E+02
    -21.735 -0.2012E-09  0.4800E+02
    -21.527 -0.2141E-14  0.4800E+02
    -21.320  0.0000E+00  0.4800E+02
    -21.112  0.0000E+00  0.4800E+02
    -20.905  0.0000E+00  0.4800E+02
    -20.698  0.0000E+00  0.4800E+02
    -20.490  0.0000E+00  0.4800E+02
    -20.283  0.0000E+00  0.4800E+02
    -20.076  0.0000E+00  0.4800E+02
    -19.868  0.0000E+00  0.4800E+02
    -19.661  0.0000E+00  0.4800E+02
    -19.453  0.0000E+00  0.4800E+02
    -19.246  0.0000E+00  0.4800E+02
    -19.039  0.0000E+00  0.4800E+02
    -18.831  0.0000E+00  0.4800E+02
    -18.624  0.0000E+00  0.4800E+02
    -18.417  0.0000E+00  0.4800E+02
    -18.209  0.0000E+00  0.4800E+02
    -18.002  0.0000E+00  0.4800E+02
    -17.794  0.0000E+00  0.4800E+02
    -17.587  0.0000E+00  0.4800E+02
    -17.380  0.0000E+00  0.4800E+02
    -17.172  0.0000E+00  0.4800E+02
    -16.965  0.0000E+00  0.4800E+02
    -16.758  0.0000E+00  0.4800E+02
    -16.550  0.0000E+00  0.4800E+02
    -16.343  0.0000E+00  0.4800E+02
    -16.135  0.0000E+00  0.4800E+02
    -15.928  0.0000E+00  0.4800E+02
    -15.721  0.0000E+00  0.4800E+02
    -15.513  0.0000E+00  0.4800E+02
    -15.306  0.0000E+00  0.4800E+02
    -15.098  0.0000E+00  0.4800E+02
    -14.891  0.0000E+00  0.4800E+02
    -14.684  0.0000E+00  0.4800E+02
    -14.476  0.0000E+00  0.4800E+02
    -14.269  0.0000E+00  0.4800E+02
    -14.062  0.0000E+00  0.4800E+02
    -13.854  0.0000E+00  0.4800E+02
    -13.647  0.0000E+00  0.4800E+02
    -13.439  0.0000E+00  0.4800E+02
    -13.232  0.0000E+00  0.4800E+02
    -13.025  0.0000E+00  0.4800E+02
    -12.817  0.0000E+00  0.4800E+02
    -12.610  0.0000E+00  0.4800E+02
    -12.403  0.0000E+00  0.4800E+02
    -12.195  0.0000E+00  0.4800E+02
    -11.988  0.0000E+00  0.4800E+02
    -11.780  0.0000E+00  0.4800E+02
    -11.573  0.0000E+00  0.4800E+02
    -11.366  0.0000E+00  0.4800E+02
    -11.158  0.0000E+00  0.4800E+02
    -10.951  0.0000E+00  0.4800E+02
    -10.744  0.0000E+00  0.4800E+02
    -10.536  0.0000E+00  0.4800E+02
    -10.329  0.0000E+00  0.4800E+02
    -10.121  0.0000E+00  0.4800E+02
     -9.914  0.0000E+00  0.4800E+02
     -9.707  0.0000E+00  0.4800E+02
     -9.499  0.0000E+00  0.4800E+02
     -9.292  0.0000E+00  0.4800E+02
     -9.085  0.0000E+00  0.4800E+02
     -8.877  0.0000E+00  0.4800E+02
     -8.670  0.0000E+00  0.4800E+02
     -8.462  0.0000E+00  0.4800E+02
     -8.255  0.0000E+00  0.4800E+02
     -8.048  0.0000E+00  0.4800E+02
     -7.840  0.0000E+00  0.4800E+02
     -7.633  0.0000E+00  0.4800E+02
     -7.426  0.0000E+00  0.4800E+02
     -7.218  0.0000E+00  0.4800E+02
     -7.011  0.0000E+00  0.4800E+02
     -6.803  0.0000E+00  0.4800E+02
     -6.596  0.0000E+00  0.4800E+02
     -6.389  0.0000E+00  0.4800E+02
     -6.181  0.0000E+00  0.4800E+02
     -5.974  0.0000E+00  0.4800E+02
     -5.767  0.0000E+00  0.4800E+02
     -5.559  0.0000E+00  0.4800E+02
     -5.352  0.0000E+00  0.4800E+02
     -5.144  0.0000E+00  0.4800E+02
     -4.937  0.0000E+00  0.4800E+02
     -4.730  0.0000E+00  0.4800E+02
     -4.522  0.0000E+00  0.4800E+02
     -4.315  0.0000E+00  0.4800E+02
     -4.108  0.0000E+00  0.4800E+02
     -3.900  0.0000E+00  0.4800E+02
     -3.693  0.0000E+00  0.4800E+02
     -3.485  0.0000E+00  0.4800E+02
     -3.278  0.0000E+00  0.4800E+02
     -3.071  0.0000E+00  0.4800E+02
     -2.863  0.0000E+00  0.4800E+02
     -2.656  0.0000E+00  0.4800E+02
     -2.449  0.0000E+00  0.4800E+02
     -2.241 -0.1329E-30  0.4800E+02
     -2.034 -0.1264E-23  0.4800E+02
     -1.826 -0.1375E-17  0.4800E+02
     -1.619 -0.1645E-12  0.4800E+02
     -1.412 -0.2279E-08  0.4800E+02
     -1.204 -0.3562E-05  0.4800E+02
     -0.997 -0.6304E-03  0.4800E+02
     -0.789 -0.1155E-01  0.4800E+02
     -0.582  0.3988E-01  0.4801E+02
     -0.375  0.5454E+00  0.4812E+02
     -0.167  0.1344E+01  0.4840E+02
      0.040  0.1691E+01  0.4875E+02
      0.247  0.1649E+01  0.4909E+02
      0.455  0.2171E+01  0.4954E+02
      0.662  0.2561E+01  0.5007E+02
      0.870  0.2959E+01  0.5068E+02
      1.077  0.2931E+01  0.5129E+02
      1.284  0.3973E+01  0.5212E+02
      1.492  0.4935E+01  0.5314E+02
      1.699  0.3753E+01  0.5392E+02
      1.906  0.4692E+01  0.5489E+02
      2.114  0.6410E+01  0.5622E+02
      2.321  0.1064E+02  0.5843E+02
      2.529  0.1468E+02  0.6147E+02
      2.736  0.1901E+02  0.6541E+02
      2.943  0.2227E+02  0.7003E+02
      3.151  0.2533E+02  0.7528E+02
      3.358  0.2969E+02  0.8144E+02
      3.565  0.3331E+02  0.8835E+02
      3.773  0.3251E+02  0.9509E+02
      3.980  0.3300E+02  0.1019E+03
      4.188  0.2906E+02  0.1080E+03
      4.395  0.1972E+02  0.1120E+03
      4.602  0.2298E+02  0.1168E+03
      4.810  0.3807E+02  0.1247E+03
      5.017  0.4633E+02  0.1343E+03
      5.224  0.4575E+02  0.1438E+03
      5.432  0.3927E+02  0.1519E+03
      5.639  0.3664E+02  0.1595E+03
      5.847  0.3903E+02  0.1676E+03
      6.054  0.4357E+02  0.1767E+03
      6.261  0.4582E+02  0.1862E+03
      6.469  0.4233E+02  0.1950E+03
      6.676  0.3762E+02  0.2028E+03
      6.883  0.3297E+02  0.2096E+03
      7.091  0.2494E+02  0.2148E+03
      7.298  0.1668E+02  0.2182E+03
      7.506  0.1458E+02  0.2213E+03
      7.713  0.1326E+02  0.2240E+03
      7.920  0.1408E+02  0.2269E+03
      8.128  0.1663E+02  0.2304E+03
      8.335  0.2101E+02  0.2347E+03
      8.542  0.2578E+02  0.2401E+03
      8.750  0.2933E+02  0.2462E+03
      8.957  0.2859E+02  0.2521E+03
      9.165  0.1664E+02  0.2555E+03
      9.372  0.2631E+01  0.2561E+03
      9.579 -0.3511E+00  0.2560E+03
      9.787 -0.3600E-01  0.2560E+03
      9.994 -0.3325E-03  0.2560E+03
     10.201 -0.3675E-06  0.2560E+03
     10.409 -0.4937E-10  0.2560E+03
     10.616 -0.7881E-15  0.2560E+03
     10.824  0.0000E+00  0.2560E+03
     11.031  0.0000E+00  0.2560E+03
     11.238  0.0000E+00  0.2560E+03
     11.446  0.0000E+00  0.2560E+03
     11.653  0.0000E+00  0.2560E+03
     11.860  0.0000E+00  0.2560E+03
     12.068  0.0000E+00  0.2560E+03
