   30   30    1    1
  0.1653808E+02  0.6420000E-09  0.8339825E-09  0.1015091E-08  0.5000000E-15
  1.000000000000000E-004
  CAR 
 Nb - Mo - Ta - Ti - W SQS               
    204     63    128
 
  0.0000000E+00  0.0000000E+00  0.0000000E+00  0.8000000E-02
    1      -47.317315   1.000000
    2      -47.307311   1.000000
    3      -47.273506   1.000000
    4      -47.216668   1.000000
    5      -47.178554   1.000000
    6      -47.114714   1.000000
    7      -23.847727   1.000000
    8      -23.780998   1.000000
    9      -23.718600   1.000000
   10      -23.613534   1.000000
   11      -23.506415   1.000000
   12      -23.488977   1.000000
   13      -23.475370   1.000000
   14      -23.445301   1.000000
   15      -23.427712   1.000000
   16      -23.398306   1.000000
   17      -23.389344   1.000000
   18      -23.374586   1.000000
   19      -23.300740   1.000000
   20      -23.274033   1.000000
   21      -23.176241   1.000000
   22      -23.142419   1.000000
   23      -23.077186   1.000000
   24      -22.939536   1.000000
   25       -0.575129   1.000000
   26        1.312650   1.000000
   27        1.814353   1.000000
   28        1.968146   1.000000
   29        2.178878   1.000000
   30        2.294344   1.000000
   31        2.361100   1.000000
   32        2.460063   1.000000
   33        2.565924   1.000000
   34        2.759017   1.000000
   35        2.804568   1.000000
   36        2.924650   1.000000
   37        2.948917   1.000000
   38        2.987135   1.000000
   39        3.073143   1.000000
   40        3.176933   1.000000
   41        3.220913   1.000000
   42        3.254993   1.000000
   43        3.294324   1.000000
   44        3.328020   1.000000
   45        3.365300   1.000000
   46        3.388624   1.000000
   47        3.480121   1.000000
   48        3.553033   1.000000
   49        3.583760   1.000000
   50        3.683045   1.000000
   51        3.703113   1.000000
   52        3.777502   1.000000
   53        3.852420   1.000000
   54        4.048503   1.000000
   55        4.235301   1.000000
   56        4.332459   1.000000
   57        4.481643   1.000000
   58        4.501170   1.000000
   59        4.641009   1.000000
   60        4.696602   1.000000
   61        4.725981   1.000000
   62        4.764937   1.000000
   63        4.808707   1.000000
   64        4.865153   1.000000
   65        4.909402   1.000000
   66        4.928043   1.000000
   67        4.975315   1.000000
   68        4.999723   1.000000
   69        5.056990   1.000000
   70        5.092348   1.000000
   71        5.147189   1.000000
   72        5.165038   1.000000
   73        5.249540   1.000000
   74        5.321906   1.000000
   75        5.417007   1.000000
   76        5.443621   1.000000
   77        5.560599   1.000000
   78        5.643048   1.000000
   79        5.730947   1.000000
   80        5.765470   1.000000
   81        5.796720   1.000000
   82        6.019616   1.000006
   83        6.159239   1.000334
   84        6.192446   1.000751
   85        6.292368   1.005812
   86        6.349673   1.014109
   87        6.380318   1.020537
   88        6.443388   1.033720
   89        6.464504   1.035444
   90        6.493224   1.032159
   91        6.572489   0.957888
   92        6.605019   0.887012
   93        6.635853   0.795654
   94        6.649840   0.747162
   95        6.675201   0.650263
   96        6.711796   0.498154
   97        6.736337   0.395221
   98        6.766469   0.276339
   99        6.821817   0.102549
  100        6.960016  -0.035406
  101        7.011079  -0.027714
  102        7.047073  -0.019491
  103        7.060774  -0.016546
  104        7.078124  -0.013166
  105        7.135926  -0.005270
  106        7.200091  -0.001484
  107        7.212027  -0.001141
  108        7.291402  -0.000161
  109        7.374661  -0.000014
  110        7.453963  -0.000001
  111        7.563368  -0.000000
  112        7.625141  -0.000000
  113        7.678805  -0.000000
  114        7.706478  -0.000000
  115        7.765915  -0.000000
  116        7.884025  -0.000000
  117        8.045314  -0.000000
  118        8.166275  -0.000000
  119        8.215775  -0.000000
  120        8.345784  -0.000000
  121        8.357730  -0.000000
  122        8.364788  -0.000000
  123        8.383210  -0.000000
  124        8.436537  -0.000000
  125        8.467305  -0.000000
  126        8.559606  -0.000000
  127        8.577709  -0.000000
  128        8.599553  -0.000000
 
  0.2000000E+00  0.2081668E-16  0.0000000E+00  0.1600000E-01
    1      -47.317058   1.000000
    2      -47.307454   1.000000
    3      -47.273495   1.000000
    4      -47.216668   1.000000
    5      -47.178595   1.000000
    6      -47.114715   1.000000
    7      -23.848817   1.000000
    8      -23.781029   1.000000
    9      -23.719754   1.000000
   10      -23.613592   1.000000
   11      -23.506679   1.000000
   12      -23.489635   1.000000
   13      -23.476110   1.000000
   14      -23.446005   1.000000
   15      -23.427688   1.000000
   16      -23.398129   1.000000
   17      -23.389205   1.000000
   18      -23.374418   1.000000
   19      -23.300923   1.000000
   20      -23.273884   1.000000
   21      -23.175200   1.000000
   22      -23.142995   1.000000
   23      -23.077107   1.000000
   24      -22.939471   1.000000
   25       -0.339974   1.000000
   26        1.298867   1.000000
   27        1.918372   1.000000
   28        2.047044   1.000000
   29        2.208197   1.000000
   30        2.325601   1.000000
   31        2.445856   1.000000
   32        2.606242   1.000000
   33        2.642890   1.000000
   34        2.742968   1.000000
   35        2.869982   1.000000
   36        2.905945   1.000000
   37        2.992343   1.000000
   38        3.068726   1.000000
   39        3.114647   1.000000
   40        3.207991   1.000000
   41        3.244753   1.000000
   42        3.294481   1.000000
   43        3.359415   1.000000
   44        3.406204   1.000000
   45        3.472803   1.000000
   46        3.502028   1.000000
   47        3.541647   1.000000
   48        3.677105   1.000000
   49        3.776058   1.000000
   50        3.826281   1.000000
   51        3.902285   1.000000
   52        3.992061   1.000000
   53        4.021683   1.000000
   54        4.063484   1.000000
   55        4.264013   1.000000
   56        4.463731   1.000000
   57        4.501834   1.000000
   58        4.553851   1.000000
   59        4.599737   1.000000
   60        4.636218   1.000000
   61        4.693543   1.000000
   62        4.731693   1.000000
   63        4.793504   1.000000
   64        4.862192   1.000000
   65        4.895690   1.000000
   66        4.942841   1.000000
   67        4.980163   1.000000
   68        5.015364   1.000000
   69        5.071546   1.000000
   70        5.106669   1.000000
   71        5.128806   1.000000
   72        5.190163   1.000000
   73        5.220161   1.000000
   74        5.277013   1.000000
   75        5.357445   1.000000
   76        5.431023   1.000000
   77        5.483203   1.000000
   78        5.570547   1.000000
   79        5.619625   1.000000
   80        5.691900   1.000000
   81        5.804682   1.000000
   82        5.862755   1.000000
   83        5.944548   1.000000
   84        6.002114   1.000003
   85        6.040368   1.000011
   86        6.077608   1.000035
   87        6.107635   1.000084
   88        6.159852   1.000340
   89        6.188019   1.000677
   90        6.236003   1.001973
   91        6.274161   1.004189
   92        6.333058   1.011170
   93        6.382114   1.020944
   94        6.418206   1.029148
   95        6.440329   1.033277
   96        6.509770   1.025933
   97        6.544494   0.998317
   98        6.567036   0.967196
   99        6.655721   0.725632
  100        6.679321   0.633658
  101        6.711923   0.497619
  102        6.835913   0.070032
  103        6.894792  -0.014258
  104        6.931310  -0.032622
  105        6.985428  -0.032800
  106        7.015362  -0.026751
  107        7.106012  -0.008708
  108        7.152135  -0.003918
  109        7.197337  -0.001575
  110        7.258983  -0.000374
  111        7.405982  -0.000005
  112        7.430388  -0.000002
  113        7.745207  -0.000000
  114        7.803904  -0.000000
  115        7.850970  -0.000000
  116        7.895978  -0.000000
  117        8.058067  -0.000000
  118        8.290280  -0.000000
  119        8.496139  -0.000000
  120        8.561969  -0.000000
  121        8.583043  -0.000000
  122        8.613064  -0.000000
  123        8.696929  -0.000000
  124        8.765371  -0.000000
  125        8.799182  -0.000000
  126        8.886537  -0.000000
  127        8.919184  -0.000000
  128        9.028987  -0.000000
 
  0.4000000E+00  0.4163336E-16  0.0000000E+00  0.1600000E-01
    1      -47.316636   1.000000
    2      -47.307685   1.000000
    3      -47.273481   1.000000
    4      -47.216668   1.000000
    5      -47.178661   1.000000
    6      -47.114715   1.000000
    7      -23.850540   1.000000
    8      -23.781172   1.000000
    9      -23.721397   1.000000
   10      -23.613629   1.000000
   11      -23.507086   1.000000
   12      -23.490787   1.000000
   13      -23.477370   1.000000
   14      -23.446836   1.000000
   15      -23.427632   1.000000
   16      -23.397812   1.000000
   17      -23.388970   1.000000
   18      -23.374284   1.000000
   19      -23.301164   1.000000
   20      -23.273607   1.000000
   21      -23.173573   1.000000
   22      -23.143857   1.000000
   23      -23.076941   1.000000
   24      -22.939342   1.000000
   25        0.307257   1.000000
   26        1.287136   1.000000
   27        1.412370   1.000000
   28        1.946773   1.000000
   29        2.224197   1.000000
   30        2.509808   1.000000
   31        2.573116   1.000000
   32        2.741251   1.000000
   33        2.764710   1.000000
   34        2.866238   1.000000
   35        2.977677   1.000000
   36        3.171846   1.000000
   37        3.298502   1.000000
   38        3.353032   1.000000
   39        3.369147   1.000000
   40        3.456360   1.000000
   41        3.530666   1.000000
   42        3.555066   1.000000
   43        3.620176   1.000000
   44        3.675636   1.000000
   45        3.717672   1.000000
   46        3.790331   1.000000
   47        3.846520   1.000000
   48        3.868591   1.000000
   49        3.906984   1.000000
   50        3.940044   1.000000
   51        4.048648   1.000000
   52        4.070734   1.000000
   53        4.169326   1.000000
   54        4.217725   1.000000
   55        4.262134   1.000000
   56        4.346173   1.000000
   57        4.485323   1.000000
   58        4.500616   1.000000
   59        4.574739   1.000000
   60        4.633514   1.000000
   61        4.725860   1.000000
   62        4.734614   1.000000
   63        4.758557   1.000000
   64        4.817507   1.000000
   65        4.852629   1.000000
   66        4.901007   1.000000
   67        4.950195   1.000000
   68        4.969959   1.000000
   69        5.000985   1.000000
   70        5.032622   1.000000
   71        5.055031   1.000000
   72        5.104946   1.000000
   73        5.174933   1.000000
   74        5.193158   1.000000
   75        5.244857   1.000000
   76        5.321862   1.000000
   77        5.352855   1.000000
   78        5.378739   1.000000
   79        5.403794   1.000000
   80        5.464185   1.000000
   81        5.494269   1.000000
   82        5.579707   1.000000
   83        5.682594   1.000000
   84        5.729340   1.000000
   85        5.783906   1.000000
   86        5.864113   1.000000
   87        5.891127   1.000000
   88        5.940641   1.000000
   89        5.971792   1.000001
   90        6.006502   1.000004
   91        6.047363   1.000014
   92        6.066727   1.000025
   93        6.097521   1.000063
   94        6.152264   1.000280
   95        6.168850   1.000425
   96        6.206019   1.001027
   97        6.267767   1.003715
   98        6.308187   1.007593
   99        6.334770   1.011453
  100        6.379530   1.020359
  101        6.498102   1.030709
  102        6.533630   1.009382
  103        6.564575   0.971161
  104        6.624342   0.832394
  105        6.679122   0.634464
  106        6.690270   0.588693
  107        6.731360   0.415841
  108        6.756588   0.313943
  109        6.837437   0.066818
  110        6.972966  -0.034506
  111        7.035679  -0.022070
  112        7.146840  -0.004324
  113        7.507586  -0.000000
  114        7.680571  -0.000000
  115        8.016391  -0.000000
  116        8.203554  -0.000000
  117        8.427216  -0.000000
  118        8.523279  -0.000000
  119        8.539362  -0.000000
  120        8.613351  -0.000000
  121        8.732695  -0.000000
  122        8.790337  -0.000000
  123        8.859453  -0.000000
  124        8.895510  -0.000000
  125        8.982270  -0.000000
  126        9.052548  -0.000000
  127        9.168597  -0.000000
  128        9.231760  -0.000000
 
  0.0000000E+00  0.2000000E+00  0.0000000E+00  0.1600000E-01
    1      -47.317070   1.000000
    2      -47.307556   1.000000
    3      -47.273521   1.000000
    4      -47.216686   1.000000
    5      -47.178510   1.000000
    6      -47.114726   1.000000
    7      -23.847856   1.000000
    8      -23.780495   1.000000
    9      -23.718037   1.000000
   10      -23.614981   1.000000
   11      -23.506337   1.000000
   12      -23.488861   1.000000
   13      -23.475530   1.000000
   14      -23.445413   1.000000
   15      -23.427657   1.000000
   16      -23.398288   1.000000
   17      -23.389440   1.000000
   18      -23.374330   1.000000
   19      -23.300871   1.000000
   20      -23.273923   1.000000
   21      -23.175432   1.000000
   22      -23.142807   1.000000
   23      -23.077176   1.000000
   24      -22.939898   1.000000
   25       -0.443649   1.000000
   26        1.236481   1.000000
   27        1.520139   1.000000
   28        1.866796   1.000000
   29        2.074420   1.000000
   30        2.324224   1.000000
   31        2.403643   1.000000
   32        2.525273   1.000000
   33        2.672844   1.000000
   34        2.706247   1.000000
   35        2.764352   1.000000
   36        2.810893   1.000000
   37        2.893223   1.000000
   38        3.000550   1.000000
   39        3.081312   1.000000
   40        3.170043   1.000000
   41        3.198416   1.000000
   42        3.278738   1.000000
   43        3.300151   1.000000
   44        3.392960   1.000000
   45        3.486986   1.000000
   46        3.521283   1.000000
   47        3.604153   1.000000
   48        3.643368   1.000000
   49        3.666603   1.000000
   50        3.702040   1.000000
   51        3.798357   1.000000
   52        3.833424   1.000000
   53        3.927463   1.000000
   54        3.951881   1.000000
   55        4.134875   1.000000
   56        4.284394   1.000000
   57        4.492217   1.000000
   58        4.533025   1.000000
   59        4.625837   1.000000
   60        4.651889   1.000000
   61        4.682034   1.000000
   62        4.724836   1.000000
   63        4.788488   1.000000
   64        4.855649   1.000000
   65        4.881793   1.000000
   66        4.970361   1.000000
   67        4.997815   1.000000
   68        5.025303   1.000000
   69        5.066637   1.000000
   70        5.091665   1.000000
   71        5.161571   1.000000
   72        5.208193   1.000000
   73        5.269056   1.000000
   74        5.308383   1.000000
   75        5.348311   1.000000
   76        5.471023   1.000000
   77        5.547887   1.000000
   78        5.622899   1.000000
   79        5.701692   1.000000
   80        5.734705   1.000000
   81        5.889711   1.000000
   82        6.017587   1.000005
   83        6.097521   1.000063
   84        6.135097   1.000179
   85        6.147258   1.000246
   86        6.184703   1.000625
   87        6.249593   1.002606
   88        6.278745   1.004558
   89        6.342780   1.012837
   90        6.418855   1.029286
   91        6.458300   1.035218
   92        6.512114   1.024732
   93        6.686642   0.603709
   94        6.735251   0.399703
   95        6.750157   0.339212
   96        6.775102   0.244872
   97        6.836320   0.069167
   98        6.882494  -0.002950
   99        6.904068  -0.020918
  100        6.982234  -0.033301
  101        7.016125  -0.026578
  102        7.062866  -0.016116
  103        7.082711  -0.012347
  104        7.120858  -0.006837
  105        7.178610  -0.002332
  106        7.203500  -0.001378
  107        7.294449  -0.000149
  108        7.317652  -0.000078
  109        7.348808  -0.000032
  110        7.448301  -0.000001
  111        7.483438  -0.000000
  112        7.556417  -0.000000
  113        7.583484  -0.000000
  114        7.912445  -0.000000
  115        8.016177  -0.000000
  116        8.085706  -0.000000
  117        8.135126  -0.000000
  118        8.201400  -0.000000
  119        8.266833  -0.000000
  120        8.302396  -0.000000
  121        8.332815  -0.000000
  122        8.396261  -0.000000
  123        8.478319  -0.000000
  124        8.495704  -0.000000
  125        8.557700  -0.000000
  126        8.680550  -0.000000
  127        8.743205  -0.000000
  128        8.946763  -0.000000
 
  0.2000000E+00  0.2000000E+00  0.0000000E+00  0.1600000E-01
    1      -47.316984   1.000000
    2      -47.307532   1.000000
    3      -47.273486   1.000000
    4      -47.216670   1.000000
    5      -47.178598   1.000000
    6      -47.114714   1.000000
    7      -23.848153   1.000000
    8      -23.780911   1.000000
    9      -23.719680   1.000000
   10      -23.614948   1.000000
   11      -23.506665   1.000000
   12      -23.489457   1.000000
   13      -23.476282   1.000000
   14      -23.445783   1.000000
   15      -23.427791   1.000000
   16      -23.398165   1.000000
   17      -23.389202   1.000000
   18      -23.374180   1.000000
   19      -23.300970   1.000000
   20      -23.273965   1.000000
   21      -23.174681   1.000000
   22      -23.142852   1.000000
   23      -23.077178   1.000000
   24      -22.939707   1.000000
   25       -0.262162   1.000000
   26        1.230028   1.000000
   27        1.663683   1.000000
   28        2.119890   1.000000
   29        2.340672   1.000000
   30        2.411770   1.000000
   31        2.485231   1.000000
   32        2.576817   1.000000
   33        2.686364   1.000000
   34        2.758339   1.000000
   35        2.849769   1.000000
   36        2.921556   1.000000
   37        2.977867   1.000000
   38        3.020665   1.000000
   39        3.102309   1.000000
   40        3.124380   1.000000
   41        3.214062   1.000000
   42        3.273778   1.000000
   43        3.343832   1.000000
   44        3.425359   1.000000
   45        3.485471   1.000000
   46        3.559296   1.000000
   47        3.613762   1.000000
   48        3.643418   1.000000
   49        3.740814   1.000000
   50        3.792126   1.000000
   51        3.893954   1.000000
   52        3.962370   1.000000
   53        4.012068   1.000000
   54        4.099404   1.000000
   55        4.310021   1.000000
   56        4.345773   1.000000
   57        4.466432   1.000000
   58        4.551215   1.000000
   59        4.597992   1.000000
   60        4.684784   1.000000
   61        4.716977   1.000000
   62        4.754696   1.000000
   63        4.778261   1.000000
   64        4.829055   1.000000
   65        4.861214   1.000000
   66        4.931574   1.000000
   67        4.980072   1.000000
   68        4.997653   1.000000
   69        5.023960   1.000000
   70        5.105941   1.000000
   71        5.188461   1.000000
   72        5.206828   1.000000
   73        5.226853   1.000000
   74        5.334850   1.000000
   75        5.373280   1.000000
   76        5.450073   1.000000
   77        5.511148   1.000000
   78        5.616069   1.000000
   79        5.654676   1.000000
   80        5.679189   1.000000
   81        5.732112   1.000000
   82        5.786969   1.000000
   83        5.855168   1.000000
   84        5.943137   1.000000
   85        5.999956   1.000003
   86        6.046683   1.000014
   87        6.086122   1.000045
   88        6.141666   1.000212
   89        6.229221   1.001710
   90        6.257254   1.003034
   91        6.325397   1.009963
   92        6.352879   1.014725
   93        6.370232   1.018302
   94        6.430744   1.031659
   95        6.476416   1.035045
   96        6.535023   1.008096
   97        6.570132   0.962000
   98        6.608354   0.878242
   99        6.636006   0.795145
  100        6.674083   0.654737
  101        6.725455   0.440522
  102        6.778548   0.232709
  103        6.873398   0.007392
  104        6.897589  -0.016427
  105        6.974294  -0.034358
  106        7.025604  -0.024398
  107        7.115578  -0.007463
  108        7.204428  -0.001350
  109        7.283640  -0.000198
  110        7.384346  -0.000011
  111        7.409175  -0.000005
  112        7.580083  -0.000000
  113        7.736527  -0.000000
  114        7.750533  -0.000000
  115        7.985980  -0.000000
  116        8.107581  -0.000000
  117        8.168971  -0.000000
  118        8.282212  -0.000000
  119        8.341412  -0.000000
  120        8.390054  -0.000000
  121        8.408655  -0.000000
  122        8.447678  -0.000000
  123        8.595036  -0.000000
  124        8.650967  -0.000000
  125        8.794084  -0.000000
  126        8.874404  -0.000000
  127        9.028966  -0.000000
  128        9.039532  -0.000000
 
  0.4000000E+00  0.2000000E+00  0.0000000E+00  0.1600000E-01
    1      -47.316619   1.000000
    2      -47.307711   1.000000
    3      -47.273461   1.000000
    4      -47.216665   1.000000
    5      -47.178678   1.000000
    6      -47.114713   1.000000
    7      -23.849670   1.000000
    8      -23.781153   1.000000
    9      -23.721509   1.000000
   10      -23.615056   1.000000
   11      -23.507173   1.000000
   12      -23.490509   1.000000
   13      -23.477460   1.000000
   14      -23.446729   1.000000
   15      -23.427801   1.000000
   16      -23.397878   1.000000
   17      -23.388971   1.000000
   18      -23.373937   1.000000
   19      -23.301138   1.000000
   20      -23.273777   1.000000
   21      -23.173195   1.000000
   22      -23.143616   1.000000
   23      -23.077003   1.000000
   24      -22.939531   1.000000
   25        0.331743   1.000000
   26        1.285622   1.000000
   27        1.481023   1.000000
   28        2.072752   1.000000
   29        2.222995   1.000000
   30        2.356233   1.000000
   31        2.626233   1.000000
   32        2.729871   1.000000
   33        2.837529   1.000000
   34        2.895458   1.000000
   35        3.010089   1.000000
   36        3.214554   1.000000
   37        3.261317   1.000000
   38        3.311802   1.000000
   39        3.365026   1.000000
   40        3.414760   1.000000
   41        3.446480   1.000000
   42        3.503544   1.000000
   43        3.527346   1.000000
   44        3.580089   1.000000
   45        3.675369   1.000000
   46        3.702171   1.000000
   47        3.761921   1.000000
   48        3.818566   1.000000
   49        3.912316   1.000000
   50        3.940903   1.000000
   51        4.019595   1.000000
   52        4.055982   1.000000
   53        4.080479   1.000000
   54        4.148592   1.000000
   55        4.218922   1.000000
   56        4.314759   1.000000
   57        4.436151   1.000000
   58        4.546232   1.000000
   59        4.609209   1.000000
   60        4.675133   1.000000
   61        4.714719   1.000000
   62        4.767152   1.000000
   63        4.817627   1.000000
   64        4.860649   1.000000
   65        4.906752   1.000000
   66        4.942699   1.000000
   67        5.000885   1.000000
   68        5.019016   1.000000
   69        5.075379   1.000000
   70        5.086763   1.000000
   71        5.144337   1.000000
   72        5.196245   1.000000
   73        5.215445   1.000000
   74        5.302635   1.000000
   75        5.324732   1.000000
   76        5.377457   1.000000
   77        5.394097   1.000000
   78        5.427303   1.000000
   79        5.487159   1.000000
   80        5.556378   1.000000
   81        5.570009   1.000000
   82        5.605172   1.000000
   83        5.668324   1.000000
   84        5.693566   1.000000
   85        5.713199   1.000000
   86        5.760565   1.000000
   87        5.798092   1.000000
   88        5.874228   1.000000
   89        5.915548   1.000000
   90        5.941478   1.000000
   91        5.988710   1.000002
   92        6.020900   1.000006
   93        6.064585   1.000024
   94        6.102198   1.000072
   95        6.122776   1.000128
   96        6.165594   1.000392
   97        6.238770   1.002090
   98        6.257235   1.003032
   99        6.299615   1.006582
  100        6.326341   1.010107
  101        6.386883   1.022034
  102        6.435973   1.032582
  103        6.478774   1.034818
  104        6.537730   1.005487
  105        6.617044   0.854092
  106        6.679766   0.631854
  107        6.757342   0.311021
  108        6.794560   0.179457
  109        6.874431   0.006128
  110        7.058993  -0.016916
  111        7.185788  -0.002011
  112        7.355251  -0.000026
  113        7.651520  -0.000000
  114        7.916532  -0.000000
  115        8.151527  -0.000000
  116        8.275545  -0.000000
  117        8.400323  -0.000000
  118        8.465879  -0.000000
  119        8.499708  -0.000000
  120        8.654615  -0.000000
  121        8.717179  -0.000000
  122        8.737571  -0.000000
  123        8.815464  -0.000000
  124        8.863959  -0.000000
  125        8.927985  -0.000000
  126        8.973086  -0.000000
  127        9.025931  -0.000000
  128        9.149411  -0.000000
 
 -0.4000000E+00  0.2000000E+00  0.0000000E+00  0.1600000E-01
    1      -47.316475   1.000000
    2      -47.307847   1.000000
    3      -47.273484   1.000000
    4      -47.216677   1.000000
    5      -47.178639   1.000000
    6      -47.114723   1.000000
    7      -23.850237   1.000000
    8      -23.780875   1.000000
    9      -23.720979   1.000000
   10      -23.615110   1.000000
   11      -23.507113   1.000000
   12      -23.490609   1.000000
   13      -23.477466   1.000000
   14      -23.446735   1.000000
   15      -23.427626   1.000000
   16      -23.397805   1.000000
   17      -23.389026   1.000000
   18      -23.374053   1.000000
   19      -23.301173   1.000000
   20      -23.273591   1.000000
   21      -23.172976   1.000000
   22      -23.143955   1.000000
   23      -23.076973   1.000000
   24      -22.939602   1.000000
   25        0.495170   1.000000
   26        1.239717   1.000000
   27        1.396333   1.000000
   28        1.863982   1.000000
   29        2.024121   1.000000
   30        2.450598   1.000000
   31        2.524978   1.000000
   32        2.678255   1.000000
   33        2.854378   1.000000
   34        2.916696   1.000000
   35        3.061755   1.000000
   36        3.143178   1.000000
   37        3.215657   1.000000
   38        3.257072   1.000000
   39        3.359905   1.000000
   40        3.385396   1.000000
   41        3.473788   1.000000
   42        3.521550   1.000000
   43        3.643484   1.000000
   44        3.697773   1.000000
   45        3.790127   1.000000
   46        3.801138   1.000000
   47        3.866643   1.000000
   48        3.879298   1.000000
   49        3.958624   1.000000
   50        4.001780   1.000000
   51        4.059784   1.000000
   52        4.128088   1.000000
   53        4.189353   1.000000
   54        4.265902   1.000000
   55        4.317348   1.000000
   56        4.372546   1.000000
   57        4.478369   1.000000
   58        4.546355   1.000000
   59        4.626753   1.000000
   60        4.662284   1.000000
   61        4.712750   1.000000
   62        4.746335   1.000000
   63        4.791870   1.000000
   64        4.840616   1.000000
   65        4.854175   1.000000
   66        4.887089   1.000000
   67        4.906394   1.000000
   68        4.959536   1.000000
   69        4.997660   1.000000
   70        5.029431   1.000000
   71        5.058539   1.000000
   72        5.101477   1.000000
   73        5.144262   1.000000
   74        5.220681   1.000000
   75        5.257837   1.000000
   76        5.300484   1.000000
   77        5.359586   1.000000
   78        5.442398   1.000000
   79        5.477085   1.000000
   80        5.527032   1.000000
   81        5.538932   1.000000
   82        5.593205   1.000000
   83        5.646585   1.000000
   84        5.699300   1.000000
   85        5.745933   1.000000
   86        5.780618   1.000000
   87        5.817982   1.000000
   88        5.880412   1.000000
   89        5.936503   1.000000
   90        5.971993   1.000001
   91        6.013916   1.000005
   92        6.048310   1.000014
   93        6.104652   1.000077
   94        6.131902   1.000164
   95        6.158615   1.000329
   96        6.223781   1.001521
   97        6.271895   1.004016
   98        6.318338   1.008934
   99        6.372702   1.018841
  100        6.412771   1.027965
  101        6.430553   1.031624
  102        6.480017   1.034677
  103        6.519481   1.020384
  104        6.569293   0.963430
  105        6.632781   0.805751
  106        6.676875   0.643541
  107        6.728881   0.426176
  108        6.757769   0.309370
  109        6.797148   0.171387
  110        6.861971   0.022956
  111        7.021214  -0.025412
  112        7.095028  -0.010315
  113        7.620440  -0.000000
  114        8.028392  -0.000000
  115        8.172905  -0.000000
  116        8.387532  -0.000000
  117        8.409907  -0.000000
  118        8.545192  -0.000000
  119        8.594136  -0.000000
  120        8.642493  -0.000000
  121        8.752670  -0.000000