 vasp.5.4.4.18Apr17-6-g9f103f2a35 (build Aug 09 2018 16:20:53) complex          
  
 executed on             LinuxIFC date 2020.04.12  14:16:29
 running on   32 total cores
 distrk:  each k-point on   32 cores,    1 groups
 distr:  one band on NCORES_PER_BAND=   4 cores,    8 groups


--------------------------------------------------------------------------------------------------------


 INCAR:
 POTCAR:    PAW_PBE Nb_sv 25May2007               
 POTCAR:    PAW_PBE Mo 08Apr2002                  
 POTCAR:    PAW_PBE Ta 17Jan2003                  
 POTCAR:    PAW_PBE Ti 08Apr2002                  
 POTCAR:    PAW_PBE W 08Apr2002                   
 POTCAR:    PAW_PBE Nb_sv 25May2007               
   VRHFIN =Nb: 4p5s4d                                                           
   LEXCH  = PE                                                                  
   EATOM  =  1555.1913 eV,  114.3033 Ry                                         
                                                                                
   TITEL  = PAW_PBE Nb_sv 25May2007                                             
   LULTRA =        F    use ultrasoft PP ?                                      
   IUNSCR =        1    unscreen: 0-lin 1-nonlin 2-no                           
   RPACOR =    1.800    partial core radius                                     
   POMASS =   92.910; ZVAL   =   13.000    mass and valenz                      
   RCORE  =    2.400    outmost cutoff radius                                   
   RWIGS  =    2.400; RWIGS  =    1.270    wigner-seitz radius (au A)           
   ENMAX  =  293.235; ENMIN  =  219.927 eV                                      
   ICORE  =        3    local potential                                         
   LCOR   =        T    correct aug charges                                     
   LPAW   =        T    paw PP                                                  
   EAUG   =  455.659                                                            
   DEXC   =    0.000                                                            
   RMAX   =    2.456    core radius for proj-oper                               
   RAUG   =    1.300    factor for augmentation sphere                          
   RDEP   =    2.451    radius for radial grids                                 
   RDEPT  =    1.956    core radius for aug-charge                              
                                                                                
   Atomic configuration                                                         
   11 entries                                                                   
     n  l   j            E        occ.                                          
     1  0  0.50    -18805.2457   2.0000                                         
     2  0  0.50     -2630.2869   2.0000                                         
     2  1  1.50     -2348.4046   6.0000                                         
     3  0  0.50      -438.8757   2.0000                                         
     3  1  1.50      -346.7588   6.0000                                         
     3  2  2.50      -196.2560  10.0000                                         
     4  0  0.50       -58.3859   2.0000                                         
     5  0  0.50        -3.9816   1.0000                                         
     4  1  1.50       -34.5141   6.0000                                         
     4  2  2.50        -3.0408   4.0000                                         
     4  3  2.50        -1.3606   0.0000                                         
   Description                                                                  
     l       E           TYP  RCUT    TYP  RCUT                                 
     0    -58.3859094     23  2.200                                             
     0     -3.9816262     23  2.200                                             
     1    -34.5140738     23  2.200                                             
     1     13.6058260     23  2.200                                             
     2     -3.0408010     23  2.200                                             
     2     -0.1283038     23  2.200                                             
     3     -1.3605826     23  2.400                                             
  local pseudopotential read in
  partial core-charges read in
  partial kinetic energy density read in
  atomic valenz-charges read in
  non local Contribution for L=           0  read in
    real space projection operators read in
  non local Contribution for L=           0  read in
    real space projection operators read in
  non local Contribution for L=           1  read in
    real space projection operators read in
  non local Contribution for L=           1  read in
    real space projection operators read in
  non local Contribution for L=           2  read in
    real space projection operators read in
  non local Contribution for L=           2  read in
    real space projection operators read in
    PAW grid and wavefunctions read in
 
   number of l-projection  operators is LMAX  =           6
   number of lm-projection operators is LMMAX =          18
 
 POTCAR:    PAW_PBE Mo 08Apr2002                  
   VRHFIN =Mo: 4p5s4d                                                           
   LEXCH  = PE                                                                  
   EATOM  =   217.5176 eV,   15.9871 Ry                                         
                                                                                
   TITEL  = PAW_PBE Mo 08Apr2002                                                
   LULTRA =        F    use ultrasoft PP ?                                      
   IUNSCR =        1    unscreen: 0-lin 1-nonlin 2-no                           
   RPACOR =    2.200    partial core radius                                     
   POMASS =   95.940; ZVAL   =    6.000    mass and valenz                      
   RCORE  =    2.750    outmost cutoff radius                                   
   RWIGS  =    2.750; RWIGS  =    1.455    wigner-seitz radius (au A)           
   ENMAX  =  224.584; ENMIN  =  168.438 eV                                      
   RCLOC  =    2.111    cutoff for local pot                                    
   LCOR   =        T    correct aug charges                                     
   LPAW   =        T    paw PP                                                  
   EAUG   =  345.278                                                            
   DEXC   =    0.000                                                            
   RMAX   =    2.821    core radius for proj-oper                               
   RAUG   =    1.300    factor for augmentation sphere                          
   RDEP   =    2.815    radius for radial grids                                 
   RDEPT  =    2.211    core radius for aug-charge                              
                                                                                
   Atomic configuration                                                         
   12 entries                                                                   
     n  l   j            E        occ.                                          
     1  0  0.50    -19819.0341   2.0000                                         
     2  0  0.50     -2799.0127   2.0000                                         
     2  1  1.50     -2502.0276   6.0000                                         
     3  0  0.50      -476.4448   2.0000                                         
     3  1  1.50      -379.1496   6.0000                                         
     3  2  2.50      -220.9367  10.0000                                         
     4  0  0.50       -64.3378   2.0000                                         
     4  1  1.50       -38.4773   6.0000                                         
     4  2  2.50        -3.7535   5.0000                                         
     5  0  0.50        -4.0862   1.0000                                         
     5  1  0.50        -2.7701   0.0000                                         
     4  3  2.50        -1.3606   0.0000                                         
   Description                                                                  
     l       E           TYP  RCUT    TYP  RCUT                                 
     2     -3.7534765     23  2.500                                             
     2     -5.1140591     23  2.500                                             
     0     -4.0861560     23  2.600                                             
     0     13.6058260     23  2.600                                             
     1      5.4423304     23  2.750                                             
     1     27.2116520     23  2.750                                             
  local pseudopotential read in
  partial core-charges read in
  partial kinetic energy density read in
  atomic valenz-charges read in
  non local Contribution for L=           2  read in
    real space projection operators read in
  non local Contribution for L=           2  read in
    real space projection operators read in
  non local Contribution for L=           0  read in
    real space projection operators read in
  non local Contribution for L=           0  read in
    real space projection operators read in
  non local Contribution for L=           1  read in
    real space projection operators read in
  non local Contribution for L=           1  read in
    real space projection operators read in
    PAW grid and wavefunctions read in
 
   number of l-projection  operators is LMAX  =           6
   number of lm-projection operators is LMMAX =          18
 
 POTCAR:    PAW_PBE Ta 17Jan2003                  
   VRHFIN =Ta:  6s5d                                                            
   LEXCH  = PE                                                                  
   EATOM  =   130.6506 eV,    9.6025 Ry                                         
                                                                                
   TITEL  = PAW_PBE Ta 17Jan2003                                                
   LULTRA =        F    use ultrasoft PP ?                                      
   IUNSCR =        1    unscreen: 0-lin 1-nonlin 2-no                           
   RPACOR =    2.330    partial core radius                                     
   POMASS =  180.948; ZVAL   =    5.000    mass and valenz                      
   RCORE  =    2.900    outmost cutoff radius                                   
   RWIGS  =    2.840; RWIGS  =    1.503    wigner-seitz radius (au A)           
   ENMAX  =  223.667; ENMIN  =  167.750 eV                                      
   RCLOC  =    2.205    cutoff for local pot                                    
   LCOR   =        T    correct aug charges                                     
   LPAW   =        T    paw PP                                                  
   EAUG   =  332.075                                                            
   DEXC   =    0.000                                                            
   RMAX   =    2.970    core radius for proj-oper                               
   RAUG   =    1.300    factor for augmentation sphere                          
   RDEP   =    3.060    radius for radial grids                                 
   RDEPT  =    2.354    core radius for aug-charge                              
                                                                                
   Atomic configuration                                                         
   16 entries                                                                   
     n  l   j            E        occ.                                          
     1  0  0.50    -67341.2807   2.0000                                         
     2  0  0.50    -11566.9376   2.0000                                         
     2  1  1.50    -10134.1182   6.0000                                         
     3  0  0.50     -2648.5620   2.0000                                         
     3  1  1.50     -2222.6012   6.0000                                         
     3  2  2.50     -1726.3120  10.0000                                         
     4  0  0.50      -538.6961   2.0000                                         
     4  1  1.50      -399.0129   6.0000                                         
     4  2  2.50      -220.3959  10.0000                                         
     4  3  3.50       -23.0374  14.0000                                         
     5  0  0.50       -71.2901   2.0000                                         
     5  1  1.50       -37.8225   6.0000                                         
     5  2  2.50        -2.6455   4.0000                                         
     6  0  0.50        -4.9623   1.0000                                         
     6  1  1.50        -1.3606   0.0000                                         
     5  3  2.50        -1.3606   0.0000                                         
   Description                                                                  
     l       E           TYP  RCUT    TYP  RCUT                                 
     2     -2.6455043     23  2.500                                             
     2     -0.6258895     23  2.500                                             
     0     -4.9622780     23  2.500                                             
     0      4.7531321     23  2.500                                             
     1     -1.3605826     23  2.900                                             
     1     27.2116520     23  2.900                                             
  local pseudopotential read in
  partial core-charges read in
  partial kinetic energy density read in
  atomic valenz-charges read in
  non local Contribution for L=           2  read in
    real space projection operators read in
  non local Contribution for L=           2  read in
    real space projection operators read in
  non local Contribution for L=           0  read in
    real space projection operators read in
  non local Contribution for L=           0  read in
    real space projection operators read in
  non local Contribution for L=           1  read in
    real space projection operators read in
  non local Contribution for L=           1  read in
    real space projection operators read in
    PAW grid and wavefunctions read in
 
   number of l-projection  operators is LMAX  =           6
   number of lm-projection operators is LMMAX =          18
 
 POTCAR:    PAW_PBE Ti 08Apr2002                  
   VRHFIN =Ti: d3 s1                                                            
   LEXCH  = PE                                                                  
   EATOM  =    94.7928 eV,    6.9671 Ry                                         
                                                                                
   TITEL  = PAW_PBE Ti 08Apr2002                                                
   LULTRA =        F    use ultrasoft PP ?                                      
   IUNSCR =        1    unscreen: 0-lin 1-nonlin 2-no                           
   RPACOR =    2.200    partial core radius                                     
   POMASS =   47.880; ZVAL   =    4.000    mass and valenz                      
   RCORE  =    2.800    outmost cutoff radius                                   
   RWIGS  =    2.500; RWIGS  =    1.323    wigner-seitz radius (au A)           
   ENMAX  =  178.330; ENMIN  =  133.747 eV                                      
   RCLOC  =    2.215    cutoff for local pot                                    
   LCOR   =        T    correct aug charges                                     
   LPAW   =        T    paw PP                                                  
   EAUG   =  328.883                                                            
   DEXC   =    0.000                                                            
   RMAX   =    2.868    core radius for proj-oper                               
   RAUG   =    1.300    factor for augmentation sphere                          
   RDEP   =    2.885    radius for radial grids                                 
   RDEPT  =    2.320    core radius for aug-charge                              
                                                                                
   Atomic configuration                                                         
    9 entries                                                                   
     n  l   j            E        occ.                                          
     1  0  0.50     -4865.3608   2.0000                                         
     2  0  0.50      -533.1367   2.0000                                         
     2  1  1.50      -440.5031   6.0000                                         
     3  0  0.50       -59.3186   2.0000                                         
     3  1  1.50       -35.7012   6.0000                                         
     3  2  2.50        -1.9157   3.0000                                         
     4  0  0.50        -3.7291   1.0000                                         
     4  1  1.50        -4.0817   0.0000                                         
     4  3  2.50        -1.3606   0.0000                                         
   Description                                                                  
     l       E           TYP  RCUT    TYP  RCUT                                 
     2     -1.9156924     23  2.800                                             
     2     -0.4062961     23  2.800                                             
     0     -3.7290832     23  2.800                                             
     0     20.4087390     23  2.800                                             
     1     -5.4423304     23  2.800                                             
  local pseudopotential read in
  partial core-charges read in
  partial kinetic energy density read in
  atomic valenz-charges read in
  non local Contribution for L=           2  read in
    real space projection operators read in
  non local Contribution for L=           2  read in
    real space projection operators read in
  non local Contribution for L=           0  read in
    real space projection operators read in
  non local Contribution for L=           0  read in
    real space projection operators read in
  non local Contribution for L=           1  read in
    real space projection operators read in
    PAW grid and wavefunctions read in
 
   number of l-projection  operators is LMAX  =           5
   number of lm-projection operators is LMMAX =          15
 
 POTCAR:    PAW_PBE W 08Apr2002                   
   VRHFIN =W : 6s5d                                                             
   LEXCH  = PE                                                                  
   EATOM  =   204.6103 eV,   15.0384 Ry                                         
                                                                                
   TITEL  = PAW_PBE W 08Apr2002                                                 
   LULTRA =        F    use ultrasoft PP ?                                      
   IUNSCR =        1    unscreen: 0-lin 1-nonlin 2-no                           
   RPACOR =    2.330    partial core radius                                     
   POMASS =  183.850; ZVAL   =    6.000    mass and valenz                      
   RCORE  =    2.750    outmost cutoff radius                                   
   RWIGS  =    2.750; RWIGS  =    1.455    wigner-seitz radius (au A)           
   ENMAX  =  223.057; ENMIN  =  167.293 eV                                      
   RCLOC  =    2.147    cutoff for local pot                                    
   LCOR   =        T    correct aug charges                                     
   LPAW   =        T    paw PP                                                  
   EAUG   =  373.438                                                            
   DEXC   =    0.000                                                            
   RMAX   =    2.801    core radius for proj-oper                               
   RAUG   =    1.300    factor for augmentation sphere                          
   RDEP   =    2.886    radius for radial grids                                 
   RDEPT  =    2.230    core radius for aug-charge                              
                                                                                
   Atomic configuration                                                         
   16 entries                                                                   
     n  l   j            E        occ.                                          
     1  0  0.50    -69465.5836   2.0000                                         
     2  0  0.50    -11986.2642   2.0000                                         
     2  1  1.50    -10479.8616   6.0000                                         
     3  0  0.50     -2759.0758   2.0000                                         
     3  1  1.50     -2313.1857   6.0000                                         
     3  2  2.50     -1801.1185  10.0000                                         
     4  0  0.50      -567.6791   2.0000                                         
     4  1  1.50      -421.4694   6.0000                                         
     4  2  2.50      -236.3473  10.0000                                         
     4  3  3.50       -31.2666  14.0000                                         
     5  0  0.50       -77.1085   2.0000                                         
     5  1  1.50       -41.3856   6.0000                                         
     5  2  2.50        -3.3185   5.0000                                         
     6  0  0.50        -5.1438   1.0000                                         
     6  1  0.50        -3.8096   0.0000                                         
     5  3  2.50        -1.3606   0.0000                                         
   Description                                                                  
     l       E           TYP  RCUT    TYP  RCUT                                 
     2     -3.3185288     23  2.500                                             
     2     -1.5965414     23  2.500                                             
     0     -5.1438054     23  2.500                                             
     0      4.9117504     23  2.500                                             
     1      2.7211652     23  2.750                                             
     1     27.2116520     23  2.750                                             
  local pseudopotential read in
  partial core-charges read in
  partial kinetic energy density read in
  atomic valenz-charges read in
  non local Contribution for L=           2  read in
    real space projection operators read in
  non local Contribution for L=           2  read in
    real space projection operators read in
  non local Contribution for L=           0  read in
    real space projection operators read in
  non local Contribution for L=           0  read in
    real space projection operators read in
  non local Contribution for L=           1  read in
    real space projection operators read in
  non local Contribution for L=           1  read in
    real space projection operators read in
    PAW grid and wavefunctions read in
 
   number of l-projection  operators is LMAX  =           6
   number of lm-projection operators is LMMAX =          18
 
 Optimization of the real space projectors (new method)

 maximal supplied QI-value         = 15.68
 optimisation between [QCUT,QGAM] = [ 10.20, 20.39] = [ 29.11,116.42] Ry 
 Optimized for a Real-space Cutoff    1.60 Angstroem

   l    n(q)    QCUT    max X(q) W(low)/X(q) W(high)/X(q)  e(spline) 
   0     10    10.195    10.201    0.19E-04    0.50E-05    0.39E-07
   0     10    10.195     8.174    0.27E-04    0.89E-05    0.77E-07
   1      9    10.195     3.488    0.83E-04    0.69E-04    0.10E-06
   1      9    10.195     4.917    0.46E-03    0.32E-03    0.50E-06
   2      9    10.195   153.744    0.18E-03    0.91E-03    0.79E-06
   2      9    10.195   126.342    0.18E-03    0.90E-03    0.79E-06
 Optimization of the real space projectors (new method)

 maximal supplied QI-value         = 13.61
 optimisation between [QCUT,QGAM] = [ 10.20, 20.41] = [ 29.16,116.64] Ry 
 Optimized for a Real-space Cutoff    1.55 Angstroem

   l    n(q)    QCUT    max X(q) W(low)/X(q) W(high)/X(q)  e(spline) 
   2      9    10.205    80.908    0.50E-03    0.10E-02    0.77E-06
   2      9    10.205    79.000    0.50E-03    0.10E-02    0.77E-06
   0      9    10.205    52.066    0.67E-04    0.52E-04    0.18E-06
   0      9    10.205    24.514    0.55E-04    0.43E-04    0.15E-06
   1      9    10.205    16.033    0.32E-03    0.32E-03    0.31E-06
   1      9    10.205    11.179    0.26E-03    0.25E-03    0.25E-06
 Optimization of the real space projectors (new method)

 maximal supplied QI-value         = 12.85
 optimisation between [QCUT,QGAM] = [ 10.15, 20.43] = [ 28.86,116.90] Ry 
 Optimized for a Real-space Cutoff    1.65 Angstroem

   l    n(q)    QCUT    max X(q) W(low)/X(q) W(high)/X(q)  e(spline) 
   2      9    10.152    62.315    0.60E-04    0.31E-03    0.56E-06
   2      9    10.152    52.185    0.60E-04    0.31E-03    0.56E-06
   0     10    10.152   103.837    0.42E-04    0.36E-04    0.14E-06
   0     10    10.152    59.728    0.37E-04    0.32E-04    0.13E-06
   1     10    10.152    13.958    0.22E-03    0.17E-03    0.20E-06
   1     10    10.152     8.441    0.16E-03    0.13E-03    0.14E-06
 Optimization of the real space projectors (new method)

 maximal supplied QI-value         = 13.42
 optimisation between [QCUT,QGAM] = [ 10.20, 20.39] = [ 29.12,116.47] Ry 
 Optimized for a Real-space Cutoff    1.60 Angstroem

   l    n(q)    QCUT    max X(q) W(low)/X(q) W(high)/X(q)  e(spline) 
   2      9    10.197    49.363    0.30E-03    0.51E-03    0.44E-06
   2      9    10.197    47.669    0.29E-03    0.50E-03    0.43E-06
   0     10    10.197    26.374    0.13E-03    0.16E-03    0.99E-07
   0     10    10.197    11.549    0.10E-03    0.13E-03    0.84E-07
   1      9    10.197     9.492    0.22E-04    0.44E-04    0.50E-07
 Optimization of the real space projectors (new method)

 maximal supplied QI-value         = 13.61
 optimisation between [QCUT,QGAM] = [ 10.20, 20.41] = [ 29.16,116.64] Ry 
 Optimized for a Real-space Cutoff    1.55 Angstroem

   l    n(q)    QCUT    max X(q) W(low)/X(q) W(high)/X(q)  e(spline) 
   2      9    10.205   130.855    0.41E-03    0.84E-03    0.64E-06
   2      9    10.205   114.007    0.41E-03    0.84E-03    0.64E-06
   0      9    10.205    84.709    0.58E-04    0.61E-04    0.12E-06
   0      9    10.205    49.163    0.53E-04    0.55E-04    0.11E-06
   1      9    10.205    15.765    0.16E-03    0.32E-03    0.27E-06
   1      9    10.205    10.638    0.14E-03    0.24E-03    0.21E-06

 ----------------------------------------------------------------------------- 
|                                                                             |
|  ADVICE TO THIS USER RUNNING 'VASP/VAMP'   (HEAR YOUR MASTER'S VOICE ...):  |
|                                                                             |
|      You enforced a specific xc-type in the INCAR file,                     |
|      a different type was found on the POTCAR file                          |
|          I HOPE YOU KNOW, WHAT YOU ARE  DOING                               |
|                                                                             |
 ----------------------------------------------------------------------------- 

  PAW_PBE Nb_sv 25May2007               :
 energy of atom  1       EATOM=-1555.1913
 kinetic energy error for atom=    0.0212 (will be added to EATOM!!)
  PAW_PBE Mo 08Apr2002                  :
 energy of atom  2       EATOM= -217.5176
 kinetic energy error for atom=    0.0025 (will be added to EATOM!!)
  PAW_PBE Ta 17Jan2003                  :
 energy of atom  3       EATOM= -130.6506
 kinetic energy error for atom=    0.0018 (will be added to EATOM!!)
  PAW_PBE Ti 08Apr2002                  :
 energy of atom  4       EATOM=  -94.7928
 kinetic energy error for atom=    0.0005 (will be added to EATOM!!)
  PAW_PBE W 08Apr2002                   :
 energy of atom  5       EATOM= -204.6103
 kinetic energy error for atom=    0.0024 (will be added to EATOM!!)
 
 
 POSCAR: Nb - Mo - Ta - Ti - W SQS-30 BCC        
  positions in direct lattice
  No initial velocities read in
 exchange correlation table for  LEXCH =       14
   RHO(1)=    0.500       N(1)  =     2000
   RHO(2)=  100.500       N(2)  =     4000

 VTST: version 3.2, (02/03/18)

 CHAIN: initializing optimizer
 
 OPT: Using VASP QUASI-newton optimizer
 CHAIN: Read ICHAIN            0
 
 POSCAR: Nb - Mo - Ta - Ti - W SQS-30 BCC        
  positions in direct lattice
  No initial velocities read in
 


--------------------------------------------------------------------------------------------------------


 ion  position               nearest neighbor table
   1  0.000  0.000  0.000-  12 2.78  13 2.78  21 2.78  28 2.78  24 2.78  14 2.78   4 2.78   5 2.78
                            25 3.21   7 3.21   7 3.21
   2  0.833  0.000  0.333-  28 2.78  29 2.78  13 2.78  23 2.78   4 2.78   9 2.78  14 2.78  27 2.78
                            16 3.21   8 3.21   8 3.21  15 3.21
   3  0.100  0.400  0.600-  27 2.78  10 2.78  21 2.78   5 2.78   9 2.78  17 2.78  11 2.78  22 2.78
                            29 3.21  18 3.21  18 3.21
   4  0.200  0.800  0.200-   8 2.78  25 2.78  17 2.78  22 2.78  26 2.78   7 2.78   2 2.78   1 2.78
                            29 3.21  28 3.21  28 3.21  13 3.21
   5  0.800  0.200  0.800-   6 2.78  15 2.78  18 2.78  30 2.78   3 2.78   7 2.78  19 2.78   1 2.78
                            27 3.21  14 3.21  11 3.21  12 3.21
   6  0.933  0.400  0.933-   5 2.78  11 2.78  14 2.78  21 2.78  26 2.78  10 2.78  13 2.78  25 2.78
                            30 3.21  12 3.21  30 3.21  16 3.21
   7  0.500  0.000  0.000-  14 2.78  24 2.78   4 2.78   5 2.78  12 2.78  13 2.78  21 2.78  28 2.78
                            15 3.21   8 3.21  26 3.21  30 3.21   1 3.21   1 3.21
   8  0.333  0.000  0.333-   4 2.78  23 2.78  14 2.78  29 2.78  28 2.78  27 2.78  13 2.78   9 2.78
                             7 3.21  17 3.21  20 3.21   2 3.21   2 3.21  19 3.21
   9  0.467  0.200  0.467-  18 2.78  15 2.78  16 2.78   3 2.78  19 2.78   2 2.78  20 2.78   8 2.78
                            21 3.21  17 3.21  27 3.21  27 3.21  23 3.21  14 3.21
  10  0.233  0.600  0.733-   3 2.78  23 2.78  12 2.78  30 2.78   6 2.78  18 2.78  29 2.78  24 2.78
                            17 3.21  21 3.21  19 3.21  11 3.21  11 3.21  25 3.21
  11  0.733  0.600  0.733-  18 2.78   6 2.78  29 2.78  24 2.78  30 2.78   3 2.78  23 2.78  12 2.78
                            22 3.21   5 3.21  15 3.21  10 3.21  10 3.21  26 3.21
  12  0.867  0.800  0.867-   1 2.78  25 2.78  26 2.78  10 2.78  19 2.78   7 2.78  15 2.78  11 2.78
                            28 3.21   6 3.21  24 3.21  24 3.21   5 3.21  29 3.21
  13  0.133  0.200  0.133-   1 2.78  16 2.78  30 2.78   2 2.78   7 2.78   6 2.78   8 2.78  20 2.78
                            21 3.21  25 3.21  14 3.21  14 3.21   4 3.21  27 3.21
  14  0.633  0.200  0.133-   7 2.78   6 2.78  20 2.78  30 2.78   8 2.78   1 2.78   2 2.78  16 2.78
                             5 3.21  26 3.21  13 3.21  13 3.21  28 3.21   9 3.21
  15  0.667  0.000  0.667-   5 2.78   9 2.78  24 2.78  27 2.78  21 2.78  29 2.78  12 2.78  23 2.78
                             7 3.21  18 3.21  11 3.21  19 3.21  19 3.21   2 3.21
  16  0.767  0.400  0.267-  22 2.78   9 2.78  13 2.78  25 2.78  17 2.78  26 2.78  27 2.78  14 2.78
                            18 3.21  28 3.21   2 3.21  20 3.21  20 3.21   6 3.21
  17  0.400  0.600  0.400-  23 2.78  20 2.78   4 2.78  28 2.78  29 2.78   3 2.78  16 2.78  18 2.78
                            10 3.21  26 3.21   8 3.21   9 3.21  22 3.21  22 3.21
  18  0.600  0.400  0.600-   9 2.78  11 2.78   5 2.78  21 2.78  27 2.78  22 2.78  10 2.78  17 2.78
                            30 3.21  16 3.21  15 3.21  23 3.21   3 3.21   3 3.21
  19  0.167  0.000  0.667-  21 2.78  27 2.78   9 2.78  12 2.78   5 2.78  23 2.78  24 2.78  29 2.78
                            10 3.21  15 3.21  15 3.21   8 3.21
  20  0.267  0.400  0.267-  17 2.78  27 2.78  14 2.78  22 2.78   9 2.78  26 2.78  25 2.78  13 2.78
                             8 3.21  16 3.21  16 3.21  30 3.21
  21  0.300  0.200  0.800-  30 2.78  19 2.78   3 2.78  18 2.78   6 2.78   1 2.78  15 2.78   7 2.78
                             9 3.21  13 3.21  10 3.21
  22  0.900  0.600  0.400-  29 2.78  16 2.78  28 2.78   4 2.78  23 2.78  18 2.78  20 2.78   3 2.78
                            11 3.21  25 3.21  27 3.21  17 3.21  17 3.21
  23  0.533  0.800  0.533-  17 2.78   8 2.78  10 2.78  22 2.78   2 2.78  19 2.78  11 2.78  15 2.78
                            28 3.21  18 3.21  29 3.21  29 3.21   9 3.21
  24  0.367  0.800  0.867-   7 2.78  26 2.78  25 2.78  11 2.78  15 2.78   1 2.78  19 2.78  10 2.78
                            30 3.21  12 3.21  12 3.21
  25  0.067  0.600  0.067-   4 2.78  12 2.78  24 2.78  28 2.78  16 2.78  20 2.78  30 2.78   6 2.78
                            22 3.21  26 3.21   1 3.21  13 3.21  26 3.21  10 3.21
  26  0.567  0.600  0.067-  28 2.78  12 2.78  24 2.78   6 2.78   4 2.78  16 2.78  20 2.78  30 2.78
                            17 3.21  25 3.21   7 3.21  14 3.21  25 3.21  11 3.21
  27  0.967  0.200  0.467-   3 2.78  19 2.78  20 2.78  18 2.78  15 2.78   8 2.78  16 2.78   2 2.78
                             5 3.21  22 3.21   9 3.21   9 3.21  29 3.21  13 3.21
  28  0.700  0.800  0.200-   2 2.78  26 2.78  22 2.78  17 2.78  25 2.78   1 2.78   8 2.78   7 2.78
                            23 3.21  12 3.21  16 3.21   4 3.21   4 3.21  14 3.21
  29  0.033  0.800  0.533-  22 2.78   2 2.78  11 2.78  17 2.78   8 2.78  15 2.78  10 2.78  19 2.78
                             4 3.21   3 3.21  23 3.21  23 3.21  27 3.21  12 3.21
  30  0.433  0.400  0.933-  21 2.78   5 2.78  11 2.78  10 2.78  14 2.78  13 2.78  25 2.78  26 2.78
                            18 3.21   6 3.21   7 3.21  24 3.21   6 3.21  20 3.21
 

IMPORTANT INFORMATION: All symmetrisations will be switched off!
NOSYMM: (Re-)initialisation of all symmetry stuff for point group C_1.

 
 
 KPOINTS: k-points                                

Automatic generation of k-mesh.
Space group operators:
 irot       det(A)        alpha          n_x          n_y          n_z        tau_x        tau_y        tau_z
    1     1.000000     0.000000     1.000000     0.000000     0.000000     0.000000     0.000000     0.000000
 
 Subroutine IBZKPT returns following result:
 ===========================================
 
 Found     63 irreducible k-points:
 
 Following reciprocal coordinates:
            Coordinates               Weight
  0.000000  0.000000  0.000000      1.000000
  0.200000  0.000000  0.000000      2.000000
  0.400000  0.000000  0.000000      2.000000
  0.000000  0.200000  0.000000      2.000000
  0.200000  0.200000  0.000000      2.000000
  0.400000  0.200000  0.000000      2.000000
 -0.400000  0.200000  0.000000      2.000000
 -0.200000  0.200000  0.000000      2.000000
  0.000000  0.400000  0.000000      2.000000
  0.200000  0.400000  0.000000      2.000000
  0.400000  0.400000  0.000000      2.000000
 -0.400000  0.400000  0.000000      2.000000
 -0.200000  0.400000  0.000000      2.000000
  0.000000  0.000000  0.200000      2.000000
  0.200000  0.000000  0.200000      2.000000
  0.400000  0.000000  0.200000      2.000000
 -0.400000 -0.000000  0.200000      2.000000
 -0.200000 -0.000000  0.200000      2.000000
  0.000000  0.200000  0.200000      2.000000
  0.200000  0.200000  0.200000      2.000000
  0.400000  0.200000  0.200000      2.000000
 -0.400000  0.200000  0.200000      2.000000
 -0.200000  0.200000  0.200000      2.000000
  0.000000  0.400000  0.200000      2.000000
  0.200000  0.400000  0.200000      2.000000
  0.400000  0.400000  0.200000      2.000000
 -0.400000  0.400000  0.200000      2.000000
 -0.200000  0.400000  0.200000      2.000000
  0.000000 -0.400000  0.200000      2.000000
  0.200000 -0.400000  0.200000      2.000000
  0.400000 -0.400000  0.200000      2.000000
 -0.400000 -0.400000  0.200000      2.000000
 -0.200000 -0.400000  0.200000      2.000000
  0.000000 -0.200000  0.200000      2.000000
  0.200000 -0.200000  0.200000      2.000000
  0.400000 -0.200000  0.200000      2.000000
 -0.400000 -0.200000  0.200000      2.000000
 -0.200000 -0.200000  0.200000      2.000000
  0.000000  0.000000  0.400000      2.000000
  0.200000  0.000000  0.400000      2.000000
  0.400000  0.000000  0.400000      2.000000
 -0.400000 -0.000000  0.400000      2.000000
 -0.200000 -0.000000  0.400000      2.000000
  0.000000  0.200000  0.400000      2.000000
  0.200000  0.200000  0.400000      2.000000
  0.400000  0.200000  0.400000      2.000000
 -0.400000  0.200000  0.400000      2.000000
 -0.200000  0.200000  0.400000      2.000000
  0.000000  0.400000  0.400000      2.000000
  0.200000  0.400000  0.400000      2.000000
  0.400000  0.400000  0.400000      2.000000
 -0.400000  0.400000  0.400000      2.000000
 -0.200000  0.400000  0.400000      2.000000
  0.000000 -0.400000  0.400000      2.000000
  0.200000 -0.400000  0.400000      2.000000
  0.400000 -0.400000  0.400000      2.000000
 -0.400000 -0.400000  0.400000      2.000000
 -0.200000 -0.400000  0.400000      2.000000
  0.000000 -0.200000  0.400000      2.000000
  0.200000 -0.200000  0.400000      2.000000
  0.400000 -0.200000  0.400000      2.000000
 -0.400000 -0.200000  0.400000      2.000000
 -0.200000 -0.200000  0.400000      2.000000
 
 Following cartesian coordinates:
            Coordinates               Weight
  0.000000  0.000000  0.000000      1.000000
 -0.013333 -0.033333  0.100000      2.000000
 -0.026667 -0.066667  0.200000      2.000000
  0.080000  0.000000  0.000000      2.000000
  0.066667 -0.033333  0.100000      2.000000
  0.053333 -0.066667  0.200000      2.000000
  0.106667  0.066667 -0.200000      2.000000
  0.093333  0.033333 -0.100000      2.000000
  0.160000  0.000000  0.000000      2.000000
  0.146667 -0.033333  0.100000      2.000000
  0.133333 -0.066667  0.200000      2.000000
  0.186667  0.066667 -0.200000      2.000000
  0.173333  0.033333 -0.100000      2.000000
 -0.013333  0.066667  0.000000      2.000000
 -0.026667  0.033333  0.100000      2.000000
 -0.040000  0.000000  0.200000      2.000000
  0.013333  0.133333 -0.200000      2.000000
 -0.000000  0.100000 -0.100000      2.000000
  0.066667  0.066667  0.000000      2.000000
  0.053333  0.033333  0.100000      2.000000
  0.040000  0.000000  0.200000      2.000000
  0.093333  0.133333 -0.200000      2.000000
  0.080000  0.100000 -0.100000      2.000000
  0.146667  0.066667  0.000000      2.000000
  0.133333  0.033333  0.100000      2.000000
  0.120000  0.000000  0.200000      2.000000
  0.173333  0.133333 -0.200000      2.000000
  0.160000  0.100000 -0.100000      2.000000
 -0.173333  0.066667  0.000000      2.000000
 -0.186667  0.033333  0.100000      2.000000
 -0.200000  0.000000  0.200000      2.000000
 -0.146667  0.133333 -0.200000      2.000000
 -0.160000  0.100000 -0.100000      2.000000
 -0.093333  0.066667  0.000000      2.000000
 -0.106667  0.033333  0.100000      2.000000
 -0.120000  0.000000  0.200000      2.000000
 -0.066667  0.133333 -0.200000      2.000000
 -0.080000  0.100000 -0.100000      2.000000
 -0.026667  0.133333  0.000000      2.000000
 -0.040000  0.100000  0.100000      2.000000
 -0.053333  0.066667  0.200000      2.000000
 -0.000000  0.200000 -0.200000      2.000000
 -0.013333  0.166667 -0.100000      2.000000
  0.053333  0.133333  0.000000      2.000000
  0.040000  0.100000  0.100000      2.000000
  0.026667  0.066667  0.200000      2.000000
  0.080000  0.200000 -0.200000      2.000000
  0.066667  0.166667 -0.100000      2.000000
  0.133333  0.133333  0.000000      2.000000
  0.120000  0.100000  0.100000      2.000000
  0.106667  0.066667  0.200000      2.000000
  0.160000  0.200000 -0.200000      2.000000
  0.146667  0.166667 -0.100000      2.000000
 -0.186667  0.133333  0.000000      2.000000
 -0.200000  0.100000  0.100000      2.000000
 -0.213333  0.066667  0.200000      2.000000
 -0.160000  0.200000 -0.200000      2.000000
 -0.173333  0.166667 -0.100000      2.000000
 -0.106667  0.133333  0.000000      2.000000
 -0.120000  0.100000  0.100000      2.000000
 -0.133333  0.066667  0.200000      2.000000
 -0.080000  0.200000 -0.200000      2.000000
 -0.093333  0.166667 -0.100000      2.000000
 


--------------------------------------------------------------------------------------------------------




 Dimension of arrays:
   k-points           NKPTS =     63   k-points in BZ     NKDIM =     63   number of bands    NBANDS=    128
   number of dos      NEDOS =    301   number of ions     NIONS =     30
   non local maximal  LDIM  =      6   non local SUM 2l+1 LMDIM =     18
   total plane-waves  NPLWV =  67200
   max r-space proj   IRMAX =   2591   max aug-charges    IRDMAX=   9553
   dimension x,y,z NGX =    32 NGY =   42 NGZ =   50
   dimension x,y,z NGXF=    64 NGYF=   84 NGZF=  100
   support grid    NGXF=    64 NGYF=   84 NGZF=  100
   ions per type =               6   6   6   6   6
   NGX,Y,Z   is equivalent  to a cutoff of   8.29,  8.37,  8.19 a.u.
   NGXF,Y,Z  is equivalent  to a cutoff of  16.57, 16.74, 16.38 a.u.

 SYSTEM =  Nb - Mo - Ta - Ti - W SQS               
 POSCAR =  Nb - Mo - Ta - Ti - W SQS-30 BCC        

 Startparameter for this run:
   NWRITE =      2    write-flag & timer
   PREC   = normal    normal or accurate (medium, high low for compatibility)
   ISTART =      0    job   : 0-new  1-cont  2-samecut
   ICHARG =      2    charge: 1-file 2-atom 10-const
   ISPIN  =      1    spin polarized calculation?
   LNONCOLLINEAR =      F non collinear calculations
   LSORBIT =      F    spin-orbit coupling
   INIWAV =      1    electr: 0-lowe 1-rand  2-diag
   LASPH  =      F    aspherical Exc in radial PAW
   METAGGA=      F    non-selfconsistent MetaGGA calc.

 Electronic Relaxation 1
   ENCUT  =  400.0 eV  29.40 Ry    5.42 a.u.  10.47 13.60 16.55*2*pi/ulx,y,z
   ENINI  =  400.0     initial cutoff
   ENAUG  =  455.7 eV  augmentation charge cutoff
   NELM   =     60;   NELMIN=  2; NELMDL= -5     # of ELM steps 
   EDIFF  = 0.1E-03   stopping-criterion for ELM
   LREAL  =      T    real-space projection
   NLSPLINE    = F    spline interpolate recip. space projectors
   LCOMPAT=      F    compatible to vasp.4.4
   GGA_COMPAT  = T    GGA compatible to vasp.4.4-vasp.4.6
   LMAXPAW     = -100 max onsite density
   LMAXMIX     =    2 max onsite mixed and CHGCAR
   VOSKOWN=      0    Vosko Wilk Nusair interpolation
   ROPT   =   -0.00050  -0.00050  -0.00050  -0.00050
   ROPT   =   -0.00050
 Ionic relaxation
   EDIFFG = 0.1E-02   stopping-criterion for IOM
   NSW    =      0    number of steps for IOM
   NBLOCK =      1;   KBLOCK =      1    inner block; outer block 
   IBRION =     -1    ionic relax: 0-MD 1-quasi-New 2-CG
   NFREE  =      0    steps in history (QN), initial steepest desc. (CG)
   ISIF   =      2    stress and relaxation
   IWAVPR =     10    prediction:  0-non 1-charg 2-wave 3-comb
   ISYM   =      0    0-nonsym 1-usesym 2-fastsym
   LCORR  =      T    Harris-Foulkes like correction to forces

   POTIM  = 0.5000    time-step for ionic-motion
   TEIN   =    0.0    initial temperature
   TEBEG  =    0.0;   TEEND  =   0.0 temperature during run
   SMASS  =  -3.00    Nose mass-parameter (am)
   estimated Nose-frequenzy (Omega)   =  0.10E-29 period in steps =****** mass=  -0.942E-27a.u.
   SCALEE = 1.0000    scale energy and forces
   NPACO  =    256;   APACO  = 16.0  distance and # of slots for P.C.
   PSTRESS=    0.0 pullay stress

  Mass of Ions in am
   POMASS =  92.91 95.94180.95 47.88183.85
  Ionic Valenz
   ZVAL   =  13.00  6.00  5.00  4.00  6.00
  Atomic Wigner-Seitz radii
   RWIGS  =  -1.00 -1.00 -1.00 -1.00 -1.00
  virtual crystal weights 
   VCA    =   1.00  1.00  1.00  1.00  1.00
   NELECT =     204.0000    total number of electrons
   NUPDOWN=      -1.0000    fix difference up-down

 DOS related values:
   EMIN   =  10.00;   EMAX   =-10.00  energy-range for DOS
   EFERMI =   0.00
   ISMEAR =     1;   SIGMA  =   0.20  broadening in eV -4-tet -1-fermi 0-gaus

 Electronic relaxation 2 (details)
   IALGO  =     38    algorithm
   LDIAG  =      T    sub-space diagonalisation (order eigenvalues)
   LSUBROT=      F    optimize rotation matrix (better conditioning)
   TURBO    =      0    0=normal 1=particle mesh
   IRESTART =      0    0=no restart 2=restart with 2 vectors
   NREBOOT  =      0    no. of reboots
   NMIN     =      0    reboot dimension
   EREF     =   0.00    reference energy to select bands
   IMIX   =      4    mixing-type and parameters
     AMIX     =   0.40;   BMIX     =  1.00
     AMIX_MAG =   1.60;   BMIX_MAG =  1.00
     AMIN     =   0.10
     WC   =   100.;   INIMIX=   1;  MIXPRE=   1;  MAXMIX= -45

 Intra band minimization:
   WEIMIN = 0.0000     energy-eigenvalue tresh-hold
   EBREAK =  0.20E-06  absolut break condition
   DEPER  =   0.30     relativ break condition  

   TIME   =   0.40     timestep for ELM

  volume/ion in A,a.u.               =      16.54       111.60
  Fermi-wavevector in a.u.,A,eV,Ry     =   1.217352  2.300461 20.163091  1.481945
  Thomas-Fermi vector in A             =   2.352675
 
 Write flags
   LWAVE        =      T    write WAVECAR
   LDOWNSAMPLE  =      F    k-point downsampling of WAVECAR
   LCHARG       =      T    write CHGCAR
   LVTOT        =      F    write LOCPOT, total local potential
   LVHAR        =      F    write LOCPOT, Hartree potential only
   LELF         =      F    write electronic localiz. function (ELF)
   LORBIT       =      0    0 simple, 1 ext, 2 COOP (PROOUT), +10 PAW based schemes


 Dipole corrections
   LMONO  =      F    monopole corrections only (constant potential shift)
   LDIPOL =      F    correct potential (dipole corrections)
   IDIPOL =      0    1-x, 2-y, 3-z, 4-all directions 
   EPSILON=  1.0000000 bulk dielectric constant

 Exchange correlation treatment:
   GGA     =    PS    GGA type
   LEXCH   =    14    internal setting for exchange type
   VOSKOWN=      0    Vosko Wilk Nusair interpolation
   LHFCALC =     F    Hartree Fock is set to
   LHFONE  =     F    Hartree Fock one center treatment
   AEXX    =    0.0000 exact exchange contribution

 Linear response parameters
   LEPSILON=     F    determine dielectric tensor
   LRPA    =     F    only Hartree local field effects (RPA)
   LNABLA  =     F    use nabla operator in PAW spheres
   LVEL    =     F    velocity operator in full k-point grid
   LINTERFAST=   F  fast interpolation
   KINTER  =     0    interpolate to denser k-point grid
   CSHIFT  =0.1000    complex shift for real part using Kramers Kronig
   OMEGAMAX=  -1.0    maximum frequency
   DEG_THRESHOLD= 0.2000000E-02 threshold for treating states as degnerate
   RTIME   =   -0.100 relaxation time in fs
  (WPLASMAI=    0.000 imaginary part of plasma frequency in eV, 0.658/RTIME)
   DFIELD  = 0.0000000 0.0000000 0.0000000 field for delta impulse in time
 
 Orbital magnetization related:
   ORBITALMAG=     F  switch on orbital magnetization
   LCHIMAG   =     F  perturbation theory with respect to B field
   DQ        =  0.001000  dq finite difference perturbation B field
   LLRAUG    =     F  two centre corrections for induced B field



--------------------------------------------------------------------------------------------------------


 Static calculation
 charge density and potential will be updated during run
 non-spin polarized calculation
 Variant of blocked Davidson
 Davidson routine will perform the subspace rotation
 perform sub-space diagonalisation
    after iterative eigenvector-optimisation
 modified Broyden-mixing scheme, WC =      100.0
 initial mixing is a Kerker type mixing with AMIX =  0.4000 and BMIX =      1.0000
 Hartree-type preconditioning will be used
 using additional bands           26
 real space projection scheme for non local part
 use partial core corrections
 calculate Harris-corrections to forces 
   (improved forces if not selfconsistent)
 use gradient corrections 
 use of overlap-Matrix (Vanderbilt PP)
 Methfessel and Paxton  Order N= 1 SIGMA  =   0.20


--------------------------------------------------------------------------------------------------------


  energy-cutoff  :      400.00
  volume of cell :      496.14
      direct lattice vectors                 reciprocal lattice vectors
     0.000000000  0.000000000  6.420000000    -0.020768432 -0.051921080  0.155763240
     8.025000000  1.605000000  1.605000000     0.124610592  0.000000000  0.000000000
     0.000000000  9.630000000  3.210000000    -0.020768432  0.103842160  0.000000000

  length of vectors
     6.420000000  8.339824638 10.150911289     0.165497170  0.124610592  0.105898640


 
 k-points in units of 2pi/SCALE and weight: k-points                                
   0.00000000  0.00000000  0.00000000       0.008
  -0.01333333 -0.03333333  0.10000000       0.016
  -0.02666667 -0.06666667  0.20000000       0.016
   0.08000000  0.00000000  0.00000000       0.016
   0.06666667 -0.03333333  0.10000000       0.016
   0.05333333 -0.06666667  0.20000000       0.016
   0.10666667  0.06666667 -0.20000000       0.016
   0.09333333  0.03333333 -0.10000000       0.016
   0.16000000  0.00000000  0.00000000       0.016
   0.14666667 -0.03333333  0.10000000       0.016
   0.13333333 -0.06666667  0.20000000       0.016
   0.18666667  0.06666667 -0.20000000       0.016
   0.17333333  0.03333333 -0.10000000       0.016
  -0.01333333  0.06666667  0.00000000       0.016
  -0.02666667  0.03333333  0.10000000       0.016
  -0.04000000  0.00000000  0.20000000       0.016
   0.01333333  0.13333333 -0.20000000       0.016
  -0.00000000  0.10000000 -0.10000000       0.016
   0.06666667  0.06666667  0.00000000       0.016
   0.05333333  0.03333333  0.10000000       0.016
   0.04000000  0.00000000  0.20000000       0.016
   0.09333333  0.13333333 -0.20000000       0.016
   0.08000000  0.10000000 -0.10000000       0.016
   0.14666667  0.06666667  0.00000000       0.016
   0.13333333  0.03333333  0.10000000       0.016
   0.12000000  0.00000000  0.20000000       0.016
   0.17333333  0.13333333 -0.20000000       0.016
   0.16000000  0.10000000 -0.10000000       0.016
  -0.17333333  0.06666667  0.00000000       0.016
  -0.18666667  0.03333333  0.10000000       0.016
  -0.20000000  0.00000000  0.20000000       0.016
  -0.14666667  0.13333333 -0.20000000       0.016
  -0.16000000  0.10000000 -0.10000000       0.016
  -0.09333333  0.06666667  0.00000000       0.016
  -0.10666667  0.03333333  0.10000000       0.016
  -0.12000000  0.00000000  0.20000000       0.016
  -0.06666667  0.13333333 -0.20000000       0.016
  -0.08000000  0.10000000 -0.10000000       0.016
  -0.02666667  0.13333333  0.00000000       0.016
  -0.04000000  0.10000000  0.10000000       0.016
  -0.05333333  0.06666667  0.20000000       0.016
  -0.00000000  0.20000000 -0.20000000       0.016
  -0.01333333  0.16666667 -0.10000000       0.016
   0.05333333  0.13333333  0.00000000       0.016
   0.04000000  0.10000000  0.10000000       0.016
   0.02666667  0.06666667  0.20000000       0.016
   0.08000000  0.20000000 -0.20000000       0.016
   0.06666667  0.16666667 -0.10000000       0.016
   0.13333333  0.13333333  0.00000000       0.016
   0.12000000  0.10000000  0.10000000       0.016
   0.10666667  0.06666667  0.20000000       0.016
   0.16000000  0.20000000 -0.20000000       0.016
   0.14666667  0.16666667 -0.10000000       0.016
  -0.18666667  0.13333333  0.00000000       0.016
  -0.20000000  0.10000000  0.10000000       0.016
  -0.21333333  0.06666667  0.20000000       0.016
  -0.16000000  0.20000000 -0.20000000       0.016
  -0.17333333  0.16666667 -0.10000000       0.016
  -0.10666667  0.13333333  0.00000000       0.016
  -0.12000000  0.10000000  0.10000000       0.016
  -0.13333333  0.06666667  0.20000000       0.016
  -0.08000000  0.20000000 -0.20000000       0.016
  -0.09333333  0.16666667 -0.10000000       0.016
 
 k-points in reciprocal lattice and weights: k-points                                
   0.00000000  0.00000000  0.00000000       0.008
   0.20000000  0.00000000  0.00000000       0.016
   0.40000000  0.00000000  0.00000000       0.016
   0.00000000  0.20000000  0.00000000       0.016
   0.20000000  0.20000000  0.00000000       0.016
   0.40000000  0.20000000  0.00000000       0.016
  -0.40000000  0.20000000  0.00000000       0.016
  -0.20000000  0.20000000  0.00000000       0.016
   0.00000000  0.40000000  0.00000000       0.016
   0.20000000  0.40000000  0.00000000       0.016
   0.40000000  0.40000000  0.00000000       0.016
  -0.40000000  0.40000000  0.00000000       0.016
  -0.20000000  0.40000000  0.00000000       0.016
   0.00000000  0.00000000  0.20000000       0.016
   0.20000000  0.00000000  0.20000000       0.016
   0.40000000  0.00000000  0.20000000       0.016
  -0.40000000 -0.00000000  0.20000000       0.016
  -0.20000000 -0.00000000  0.20000000       0.016
   0.00000000  0.20000000  0.20000000       0.016
   0.20000000  0.20000000  0.20000000       0.016
   0.40000000  0.20000000  0.20000000       0.016
  -0.40000000  0.20000000  0.20000000       0.016
  -0.20000000  0.20000000  0.20000000       0.016
   0.00000000  0.40000000  0.20000000       0.016
   0.20000000  0.40000000  0.20000000       0.016
   0.40000000  0.40000000  0.20000000       0.016
  -0.40000000  0.40000000  0.20000000       0.016
  -0.20000000  0.40000000  0.20000000       0.016
   0.00000000 -0.40000000  0.20000000       0.016
   0.20000000 -0.40000000  0.20000000       0.016
   0.40000000 -0.40000000  0.20000000       0.016
  -0.40000000 -0.40000000  0.20000000       0.016
  -0.20000000 -0.40000000  0.20000000       0.016
   0.00000000 -0.20000000  0.20000000       0.016
   0.20000000 -0.20000000  0.20000000       0.016
   0.40000000 -0.20000000  0.20000000       0.016
  -0.40000000 -0.20000000  0.20000000       0.016
  -0.20000000 -0.20000000  0.20000000       0.016
   0.00000000  0.00000000  0.40000000       0.016
   0.20000000  0.00000000  0.40000000       0.016
   0.40000000  0.00000000  0.40000000       0.016
  -0.40000000 -0.00000000  0.40000000       0.016
  -0.20000000 -0.00000000  0.40000000       0.016
   0.00000000  0.20000000  0.40000000       0.016
   0.20000000  0.20000000  0.40000000       0.016
   0.40000000  0.20000000  0.40000000       0.016
  -0.40000000  0.20000000  0.40000000       0.016
  -0.20000000  0.20000000  0.40000000       0.016
   0.00000000  0.40000000  0.40000000       0.016
   0.20000000  0.40000000  0.40000000       0.016
   0.40000000  0.40000000  0.40000000       0.016
  -0.40000000  0.40000000  0.40000000       0.016
  -0.20000000  0.40000000  0.40000000       0.016
   0.00000000 -0.40000000  0.40000000       0.016
   0.20000000 -0.40000000  0.40000000       0.016
   0.40000000 -0.40000000  0.40000000       0.016
  -0.40000000 -0.40000000  0.40000000       0.016
  -0.20000000 -0.40000000  0.40000000       0.016
   0.00000000 -0.20000000  0.40000000       0.016
   0.20000000 -0.20000000  0.40000000       0.016
   0.40000000 -0.20000000  0.40000000       0.016
  -0.40000000 -0.20000000  0.40000000       0.016
  -0.20000000 -0.20000000  0.40000000       0.016
 
 position of ions in fractional coordinates (direct lattice) 
   0.00000000  0.00000000  0.00000000
   0.83333333  0.00000000  0.33333333
   0.10000000  0.40000000  0.60000000
   0.20000000  0.80000000  0.20000000
   0.80000000  0.20000000  0.80000000
   0.93333333  0.40000000  0.93333333
   0.50000000  0.00000000  0.00000000
   0.33333333  0.00000000  0.33333333
   0.46666667  0.20000000  0.46666667
   0.23333333  0.60000000  0.73333333
   0.73333333  0.60000000  0.73333333
   0.86666667  0.80000000  0.86666667
   0.13333333  0.20000000  0.13333333
   0.63333333  0.20000000  0.13333333
   0.66666667  0.00000000  0.66666667
   0.76666667  0.40000000  0.26666667
   0.40000000  0.60000000  0.40000000
   0.60000000  0.40000000  0.60000000
   0.16666667  0.00000000  0.66666667
   0.26666667  0.40000000  0.26666667
   0.30000000  0.20000000  0.80000000
   0.90000000  0.60000000  0.40000000
   0.53333333  0.80000000  0.53333333
   0.36666667  0.80000000  0.86666667
   0.06666667  0.60000000  0.06666667
   0.56666667  0.60000000  0.06666667
   0.96666667  0.20000000  0.46666667
   0.70000000  0.80000000  0.20000000
   0.03333333  0.80000000  0.53333333
   0.43333333  0.40000000  0.93333333
 
 position of ions in cartesian coordinates  (Angst):
   0.00000000  0.00000000  0.00000000
   0.00000000  3.20999997  6.41999997
   3.21000000  6.42000000  3.21000000
   6.42000000  3.21000000  3.21000000
   1.60500000  8.02500000  8.02500000
   3.21000000  9.62999997  9.62999997
   0.00000000  0.00000000  3.21000000
   0.00000000  3.20999997  3.20999997
   1.60500000  4.81500003  4.81500003
   4.81500000  8.02499997  4.81499997
   4.81500000  8.02499997  8.02499997
   6.42000000  9.63000003  9.63000003
   1.60500000  1.60499997  1.60499997
   1.60500000  1.60499997  4.81499997
   0.00000000  6.42000003  6.42000003
   3.21000000  3.21000003  6.42000003
   4.81500000  4.81500000  4.81500000
   3.21000000  6.42000000  6.42000000
   0.00000000  6.42000003  3.21000003
   3.21000000  3.21000003  3.21000003
   1.60500000  8.02500000  4.81500000
   4.81500000  4.81500000  8.02500000
   6.42000000  6.41999997  6.41999997
   6.42000000  9.63000003  6.42000003
   4.81500000  1.60500003  1.60500003
   4.81500000  1.60500003  4.81500003
   1.60500000  4.81500003  8.02500003
   6.42000000  3.21000000  6.42000000
   6.42000000  6.41999997  3.20999997
   3.21000000  9.62999997  6.41999997
 


--------------------------------------------------------------------------------------------------------


 k-point  1 :   0.0000 0.0000 0.0000  plane waves:    9035
 k-point  2 :   0.2000 0.0000 0.0000  plane waves:    9037
 k-point  3 :   0.4000 0.0000 0.0000  plane waves:    9007
 k-point  4 :   0.0000 0.2000 0.0000  plane waves:    9053
 k-point  5 :   0.2000 0.2000 0.0000  plane waves:    9032
 k-point  6 :   0.4000 0.2000 0.0000  plane waves:    9014
 k-point  7 :  -0.4000 0.2000 0.0000  plane waves:    8998
 k-point  8 :  -0.2000 0.2000 0.0000  plane waves:    9011
 k-point  9 :   0.0000 0.4000 0.0000  plane waves:    9018
 k-point 10 :   0.2000 0.4000 0.0000  plane waves:    9019
 k-point 11 :   0.4000 0.4000 0.0000  plane waves:    8990
 k-point 12 :  -0.4000 0.4000 0.0000  plane waves:    9009
 k-point 13 :  -0.2000 0.4000 0.0000  plane waves:    9001
 k-point 14 :   0.0000 0.0000 0.2000  plane waves:    9031
 k-point 15 :   0.2000 0.0000 0.2000  plane waves:    9028
 k-point 16 :   0.4000 0.0000 0.2000  plane waves:    9021
 k-point 17 :  -0.4000-0.0000 0.2000  plane waves:    8999
 k-point 18 :  -0.2000-0.0000 0.2000  plane waves:    9031
 k-point 19 :   0.0000 0.2000 0.2000  plane waves:    9023
 k-point 20 :   0.2000 0.2000 0.2000  plane waves:    9036
 k-point 21 :   0.4000 0.2000 0.2000  plane waves:    9022
 k-point 22 :  -0.4000 0.2000 0.2000  plane waves:    8998
 k-point 23 :  -0.2000 0.2000 0.2000  plane waves:    9025
 k-point 24 :   0.0000 0.4000 0.2000  plane waves:    9012
 k-point 25 :   0.2000 0.4000 0.2000  plane waves:    9013
 k-point 26 :   0.4000 0.4000 0.2000  plane waves:    9010
 k-point 27 :  -0.4000 0.4000 0.2000  plane waves:    8995
 k-point 28 :  -0.2000 0.4000 0.2000  plane waves:    9004
 k-point 29 :   0.0000-0.4000 0.2000  plane waves:    9005
 k-point 30 :   0.2000-0.4000 0.2000  plane waves:    9015
 k-point 31 :   0.4000-0.4000 0.2000  plane waves:    9005
 k-point 32 :  -0.4000-0.4000 0.2000  plane waves:    9004
 k-point 33 :  -0.2000-0.4000 0.2000  plane waves:    9017
 k-point 34 :   0.0000-0.2000 0.2000  plane waves:    9042
 k-point 35 :   0.2000-0.2000 0.2000  plane waves:    9016
 k-point 36 :   0.4000-0.2000 0.2000  plane waves:    9008
 k-point 37 :  -0.4000-0.2000 0.2000  plane waves:    8987
 k-point 38 :  -0.2000-0.2000 0.2000  plane waves:    9017
 k-point 39 :   0.0000 0.0000 0.4000  plane waves:    9053
 k-point 40 :   0.2000 0.0000 0.4000  plane waves:    9026
 k-point 41 :   0.4000 0.0000 0.4000  plane waves:    9011
 k-point 42 :  -0.4000-0.0000 0.4000  plane waves:    8998
 k-point 43 :  -0.2000-0.0000 0.4000  plane waves:    9020
 k-point 44 :   0.0000 0.2000 0.4000  plane waves:    9024
 k-point 45 :   0.2000 0.2000 0.4000  plane waves:    9038
 k-point 46 :   0.4000 0.2000 0.4000  plane waves:    8993
 k-point 47 :  -0.4000 0.2000 0.4000  plane waves:    9006
 k-point 48 :  -0.2000 0.2000 0.4000  plane waves:    9009
 k-point 49 :   0.0000 0.4000 0.4000  plane waves:    8988
 k-point 50 :   0.2000 0.4000 0.4000  plane waves:    9008
 k-point 51 :   0.4000 0.4000 0.4000  plane waves:    8991
 k-point 52 :  -0.4000 0.4000 0.4000  plane waves:    9000
 k-point 53 :  -0.2000 0.4000 0.4000  plane waves:    9000
 k-point 54 :   0.0000-0.4000 0.4000  plane waves:    9002
 k-point 55 :   0.2000-0.4000 0.4000  plane waves:    9020
 k-point 56 :   0.4000-0.4000 0.4000  plane waves:    9016
 k-point 57 :  -0.4000-0.4000 0.4000  plane waves:    8999
 k-point 58 :  -0.2000-0.4000 0.4000  plane waves:    8993
 k-point 59 :   0.0000-0.2000 0.4000  plane waves:    9025
 k-point 60 :   0.2000-0.2000 0.4000  plane waves:    9017
 k-point 61 :   0.4000-0.2000 0.4000  plane waves:    9010
 k-point 62 :  -0.4000-0.2000 0.4000  plane waves:    8992
 k-point 63 :  -0.2000-0.2000 0.4000  plane waves:    9011

 maximum and minimum number of plane-waves per node :      2280     2231

 maximum number of plane-waves:      9053
 maximum index in each direction: 
   IXMAX=   10   IYMAX=   13   IZMAX=   16
   IXMIN=  -10   IYMIN=  -14   IZMIN=  -16


 real space projection operators:
  total allocation   :       9053.67 KBytes
  max/ min on nodes  :       2267.53       2257.71


 parallel 3D FFT for wavefunctions:
    minimum data exchange during FFTs selected (reduces bandwidth)
 parallel 3D FFT for charge:
    minimum data exchange during FFTs selected (reduces bandwidth)


 total amount of memory used by VASP MPI-rank0    76321. kBytes
=======================================================================

   base      :      30000. kBytes
   nonlr-proj:       4092. kBytes
   fftplans  :       1097. kBytes
   grid      :       2043. kBytes
   one-center:        124. kBytes
   wavefun   :      38965. kBytes
 
     INWAV:  cpu time    0.0000: real time    0.0002
 Broyden mixing: mesh for mixing (old mesh)
   NGX = 21   NGY = 27   NGZ = 33
  (NGX  = 64   NGY  = 84   NGZ  =100)
  gives a total of  18711 points

 initial charge density was supplied:
 charge density of overlapping atoms calculated
 number of electron     204.0000000 magnetization 
 keeping initial charge density in first step


--------------------------------------------------------------------------------------------------------


 Maximum index for non-local projection operator          624
 Maximum index for augmentation-charges          499 (set IRDMAX)


--------------------------------------------------------------------------------------------------------


 First call to EWALD:  gamma=   0.224
 Maximum number of real-space cells 3x 3x 2
 Maximum number of reciprocal cells 2x 3x 3

    FEWALD:  cpu time    0.0027: real time    0.0030


--------------------------------------- Iteration      1(   1)  ---------------------------------------


    POTLOK:  cpu time    0.0117: real time    0.0169
    SETDIJ:  cpu time    0.0038: real time    0.0039
     EDDAV:  cpu time   10.6822: real time   10.7025
       DOS:  cpu time    0.0040: real time    0.0040
    --------------------------------------------
      LOOP:  cpu time   10.7018: real time   10.7274

 eigenvalue-minimisations  : 16216
 total energy-change (2. order) : 0.1605311E+04  (-0.7525579E+04)
 number of electron     204.0000000 magnetization 
 augmentation part      204.0000000 magnetization 

 Free energy of the ion-electron system (eV)
  ---------------------------------------------------
  alpha Z        PSCENC =      1355.76136246
  Ewald energy   TEWEN  =    -12017.04278427
  -Hartree energ DENC   =     -3024.54981287
  -exchange      EXHF   =         0.00000000
  -V(xc)+E(xc)   XCENC  =      -903.88887319
  PAW double counting   =     12303.85264859   -10739.97191893
  entropy T*S    EENTRO =        -0.00384766
  eigenvalues    EBANDS =      1420.30152718
  atomic energy  EATOM  =     13210.85262565
  Solvation  Ediel_sol  =         0.00000000
  ---------------------------------------------------
  free energy    TOTEN  =      1605.31092695 eV

  energy without entropy =     1605.31477461  energy(sigma->0) =     1605.31220951


--------------------------------------------------------------------------------------------------------




--------------------------------------- Iteration      1(   2)  ---------------------------------------


     EDDAV:  cpu time   10.7379: real time   10.7539
       DOS:  cpu time    0.0041: real time    0.0041
    --------------------------------------------
      LOOP:  cpu time   10.7420: real time   10.7580

 eigenvalue-minimisations  : 16128
 total energy-change (2. order) :-0.1658941E+04  (-0.1595658E+04)
 number of electron     204.0000000 magnetization 
 augmentation part      204.0000000 magnetization 

 Free energy of the ion-electron system (eV)
  ---------------------------------------------------
  alpha Z        PSCENC =      1355.76136246
  Ewald energy   TEWEN  =    -12017.04278427
  -Hartree energ DENC   =     -3024.54981287
  -exchange      EXHF   =         0.00000000
  -V(xc)+E(xc)   XCENC  =      -903.88887319
  PAW double counting   =     12303.85264859   -10739.97191893
  entropy T*S    EENTRO =         0.00443013
  eigenvalues    EBANDS =      -238.64802316
  atomic energy  EATOM  =     13210.85262565
  Solvation  Ediel_sol  =         0.00000000
  ---------------------------------------------------
  free energy    TOTEN  =       -53.63034560 eV

  energy without entropy =      -53.63477573  energy(sigma->0) =      -53.63182231


--------------------------------------------------------------------------------------------------------




--------------------------------------- Iteration      1(   3)  ---------------------------------------


     EDDAV:  cpu time   17.0534: real time   17.0797
       DOS:  cpu time    0.0043: real time    0.0044
    --------------------------------------------
      LOOP:  cpu time   17.0577: real time   17.0840

 eigenvalue-minimisations  : 28368
 total energy-change (2. order) :-0.2816830E+03  (-0.2645253E+03)
 number of electron     204.0000000 magnetization 
 augmentation part      204.0000000 magnetization 

 Free energy of the ion-electron system (eV)
  ---------------------------------------------------
  alpha Z        PSCENC =      1355.76136246
  Ewald energy   TEWEN  =    -12017.04278427
  -Hartree energ DENC   =     -3024.54981287
  -exchange      EXHF   =         0.00000000
  -V(xc)+E(xc)   XCENC  =      -903.88887319
  PAW double counting   =     12303.85264859   -10739.97191893
  entropy T*S    EENTRO =         0.00118181
  eigenvalues    EBANDS =      -520.32776218
  atomic energy  EATOM  =     13210.85262565
  Solvation  Ediel_sol  =         0.00000000
  ---------------------------------------------------
  free energy    TOTEN  =      -335.31333293 eV

  energy without entropy =     -335.31451474  energy(sigma->0) =     -335.31372687


--------------------------------------------------------------------------------------------------------




--------------------------------------- Iteration      1(   4)  ---------------------------------------


     EDDAV:  cpu time   15.6018: real time   15.6258
       DOS:  cpu time    0.0041: real time    0.0041
    --------------------------------------------
      LOOP:  cpu time   15.6059: real time   15.6299

 eigenvalue-minimisations  : 25816
 total energy-change (2. order) :-0.3153384E+02  (-0.2960386E+02)
 number of electron     204.0000000 magnetization 
 augmentation part      204.0000000 magnetization 

 Free energy of the ion-electron system (eV)
  ---------------------------------------------------
  alpha Z        PSCENC =      1355.76136246
  Ewald energy   TEWEN  =    -12017.04278427
  -Hartree energ DENC   =     -3024.54981287
  -exchange      EXHF   =         0.00000000
  -V(xc)+E(xc)   XCENC  =      -903.88887319
  PAW double counting   =     12303.85264859   -10739.97191893
  entropy T*S    EENTRO =         0.00903196
  eigenvalues    EBANDS =      -551.86945386
  atomic energy  EATOM  =     13210.85262565
  Solvation  Ediel_sol  =         0.00000000
  ---------------------------------------------------
  free energy    TOTEN  =      -366.84717446 eV

  energy without entropy =     -366.85620642  energy(sigma->0) =     -366.85018511


--------------------------------------------------------------------------------------------------------




--------------------------------------- Iteration      1(   5)  ---------------------------------------


     EDDAV:  cpu time   16.9339: real time   16.9609
       DOS:  cpu time    0.0040: real time    0.0040
    CHARGE:  cpu time    0.3081: real time    0.3084
    MIXING:  cpu time    0.0011: real time    0.0014
    --------------------------------------------
      LOOP:  cpu time   17.2471: real time   17.2748

 eigenvalue-minimisations  : 28256
 total energy-change (2. order) :-0.2655461E+01  (-0.2616551E+01)
 number of electron     204.0000015 magnetization 
 augmentation part       22.9994266 magnetization 

 Broyden mixing:
  rms(total) = 0.77369E+01    rms(broyden)= 0.77368E+01
  rms(prec ) = 0.82036E+01
  weight for this iteration     100.00

 Free energy of the ion-electron system (eV)
  ---------------------------------------------------
  alpha Z        PSCENC =      1355.76136246
  Ewald energy   TEWEN  =    -12017.04278427
  -Hartree energ DENC   =     -3024.54981287
  -exchange      EXHF   =         0.00000000
  -V(xc)+E(xc)   XCENC  =      -903.88887319
  PAW double counting   =     12303.85264859   -10739.97191893
  entropy T*S    EENTRO =         0.00977414
  eigenvalues    EBANDS =      -554.52565724
  atomic energy  EATOM  =     13210.85262565
  Solvation  Ediel_sol  =         0.00000000
  ---------------------------------------------------
  free energy    TOTEN  =      -369.50263566 eV

  energy without entropy =     -369.51240980  energy(sigma->0) =     -369.50589371


--------------------------------------------------------------------------------------------------------




--------------------------------------- Iteration      1(   6)  ---------------------------------------


    POTLOK:  cpu time    0.0102: real time    0.0109
    SETDIJ:  cpu time    0.0034: real time    0.0034
     EDDAV:  cpu time   14.5084: real time   14.5267
       DOS:  cpu time    0.0042: real time    0.0041
    CHARGE:  cpu time    0.3100: real time    0.3104
    MIXING:  cpu time    0.0009: real time    0.0009
    --------------------------------------------
      LOOP:  cpu time   14.8371: real time   14.8565

 eigenvalue-minimisations  : 23488
 total energy-change (2. order) : 0.1145650E+02  (-0.1077502E+02)
 number of electron     204.0000017 magnetization 
 augmentation part       30.4217368 magnetization 

 Broyden mixing:
  rms(total) = 0.36854E+01    rms(broyden)= 0.36854E+01
  rms(prec ) = 0.52832E+01
  weight for this iteration     100.00

 eigenvalues of (default mixing * dielectric matrix)
  average eigenvalue GAMMA=   1.3046
  1.3046

 Free energy of the ion-electron system (eV)
  ---------------------------------------------------
  alpha Z        PSCENC =      1355.76136246
  Ewald energy   TEWEN  =    -12017.04278427
  -Hartree energ DENC   =     -2941.87363217
  -exchange      EXHF   =         0.00000000
  -V(xc)+E(xc)   XCENC  =      -901.47570900
  PAW double counting   =     16230.84978632   -14674.12169411
  entropy T*S    EENTRO =        -0.00547438
  eigenvalues    EBANDS =      -620.99061867
  atomic energy  EATOM  =     13210.85262565
  Solvation  Ediel_sol  =         0.00000000
  ---------------------------------------------------
  free energy    TOTEN  =      -358.04613817 eV

  energy without entropy =     -358.04066379  energy(sigma->0) =     -358.04431337


--------------------------------------------------------------------------------------------------------




--------------------------------------- Iteration      1(   7)  ---------------------------------------


    POTLOK:  cpu time    0.0098: real time    0.0102
    SETDIJ:  cpu time    0.0033: real time    0.0033
     EDDAV:  cpu time   14.5350: real time   14.5542
       DOS:  cpu time    0.0040: real time    0.0040
    CHARGE:  cpu time    0.3115: real time    0.3119
    MIXING:  cpu time    0.0007: real time    0.0007
    --------------------------------------------
      LOOP:  cpu time   14.8644: real time   14.8844

 eigenvalue-minimisations  : 23520
 total energy-change (2. order) :-0.1351454E+02  (-0.3580542E+02)
 number of electron     204.0000016 magnetization 
 augmentation part       24.5518714 magnetization 

 Broyden mixing:
  rms(total) = 0.27250E+01    rms(broyden)= 0.27250E+01
  rms(prec ) = 0.49170E+01
  weight for this iteration     100.00

 eigenvalues of (default mixing * dielectric matrix)
  average eigenvalue GAMMA=   1.0344
  1.6603  0.4084

 Free energy of the ion-electron system (eV)
  ---------------------------------------------------
  alpha Z        PSCENC =      1355.76136246
  Ewald energy   TEWEN  =    -12017.04278427
  -Hartree energ DENC   =     -2841.82449641
  -exchange      EXHF   =         0.00000000
  -V(xc)+E(xc)   XCENC  =      -902.64350369
  PAW double counting   =     17774.41438650   -16226.80569082
  entropy T*S    EENTRO =         0.00838108
  eigenvalues    EBANDS =      -724.28095550
  atomic energy  EATOM  =     13210.85262565
  Solvation  Ediel_sol  =         0.00000000
  ---------------------------------------------------
  free energy    TOTEN  =      -371.56067500 eV

  energy without entropy =     -371.56905608  energy(sigma->0) =     -371.56346869


--------------------------------------------------------------------------------------------------------




--------------------------------------- Iteration      1(   8)  ---------------------------------------


    POTLOK:  cpu time    0.0113: real time    0.0129
    SETDIJ:  cpu time    0.0040: real time    0.0040
     EDDAV:  cpu time   13.8373: real time   13.8545
       DOS:  cpu time    0.0041: real time    0.0041
    CHARGE:  cpu time    0.3109: real time    0.3112
    MIXING:  cpu time    0.0006: real time    0.0006
    --------------------------------------------
      LOOP:  cpu time   14.1681: real time   14.1873

 eigenvalue-minimisations  : 22128
 total energy-change (2. order) : 0.1894649E+02  (-0.3885732E+01)
 number of electron     204.0000016 magnetization 
 augmentation part       25.4216968 magnetization 

 Broyden mixing:
  rms(total) = 0.15079E+01    rms(broyden)= 0.15079E+01
  rms(prec ) = 0.26255E+01
  weight for this iteration     100.00

 eigenvalues of (default mixing * dielectric matrix)
  average eigenvalue GAMMA=   0.9356
  1.7903  0.5083  0.5083

 Free energy of the ion-electron system (eV)
  ---------------------------------------------------
  alpha Z        PSCENC =      1355.76136246
  Ewald energy   TEWEN  =    -12017.04278427
  -Hartree energ DENC   =     -2837.85921247
  -exchange      EXHF   =         0.00000000
  -V(xc)+E(xc)   XCENC  =      -900.65219125
  PAW double counting   =     19735.69832243   -18188.51537612
  entropy T*S    EENTRO =         0.00691056
  eigenvalues    EBANDS =      -710.86384175
  atomic energy  EATOM  =     13210.85262565
  Solvation  Ediel_sol  =         0.00000000
  ---------------------------------------------------
  free energy    TOTEN  =      -352.61418476 eV

  energy without entropy =     -352.62109532  energy(sigma->0) =     -352.61648828


--------------------------------------------------------------------------------------------------------




--------------------------------------- Iteration      1(   9)  ---------------------------------------


    POTLOK:  cpu time    0.0155: real time    0.0211
    SETDIJ:  cpu time    0.0034: real time    0.0034
     EDDAV:  cpu time   14.3634: real time   14.3849
       DOS:  cpu time    0.0043: real time    0.0043
    CHARGE:  cpu time    0.3107: real time    0.3110
    MIXING:  cpu time    0.0006: real time    0.0006
    --------------------------------------------
      LOOP:  cpu time   14.6979: real time   14.7253

 eigenvalue-minimisations  : 23176
 total energy-change (2. order) : 0.5159140E+01  (-0.1056832E+01)
 number of electron     204.0000015 magnetization 
 augmentation part       26.0771871 magnetization 

 Broyden mixing:
  rms(total) = 0.87639E+00    rms(broyden)= 0.87637E+00
  rms(prec ) = 0.15550E+01
  weight for this iteration     100.00

 eigenvalues of (default mixing * dielectric matrix)
  average eigenvalue GAMMA=   0.8643
  1.8447  0.6160  0.6160  0.3803

 Free energy of the ion-electron system (eV)
  ---------------------------------------------------
  alpha Z        PSCENC =      1355.76136246
  Ewald energy   TEWEN  =    -12017.04278427
  -Hartree energ DENC   =     -2847.08352911
  -exchange      EXHF   =         0.00000000
  -V(xc)+E(xc)   XCENC  =      -899.59676089
  PAW double counting   =     20309.80918307   -18760.52016495
  entropy T*S    EENTRO =         0.00181896
  eigenvalues    EBANDS =      -699.63679539
  atomic energy  EATOM  =     13210.85262565
  Solvation  Ediel_sol  =         0.00000000
  ---------------------------------------------------
  free energy    TOTEN  =      -347.45504445 eV

  energy without entropy =     -347.45686341  energy(sigma->0) =     -347.45565077


--------------------------------------------------------------------------------------------------------




--------------------------------------- Iteration      1(  10)  ---------------------------------------


    POTLOK:  cpu time    0.0097: real time    0.0105
    SETDIJ:  cpu time    0.0033: real time    0.0033
     EDDAV:  cpu time   15.0956: real time   15.1158
       DOS:  cpu time    0.0041: real time    0.0041
    CHARGE:  cpu time    0.3121: real time    0.3125
    MIXING:  cpu time    0.0007: real time    0.0007
    --------------------------------------------
      LOOP:  cpu time   15.4256: real time   15.4469

 eigenvalue-minimisations  : 24608
 total energy-change (2. order) : 0.1024580E+01  (-0.5448666E+00)
 number of electron     204.0000015 magnetization 
 augmentation part       26.7544035 magnetization 

 Broyden mixing:
  rms(total) = 0.50064E+00    rms(broyden)= 0.50062E+00
  rms(prec ) = 0.80716E+00
  weight for this iteration     100.00

 eigenvalues of (default mixing * dielectric matrix)
  average eigenvalue GAMMA=   0.8192
  1.9049  0.7077  0.7077  0.4405  0.3349

 Free energy of the ion-electron system (eV)
  ---------------------------------------------------
  alpha Z        PSCENC =      1355.76136246
  Ewald energy   TEWEN  =    -12017.04278427
  -Hartree energ DENC   =     -2851.85950087
  -exchange      EXHF   =         0.00000000
  -V(xc)+E(xc)   XCENC  =      -899.05381267
  PAW double counting   =     20604.66583542   -19053.35212811
  entropy T*S    EENTRO =        -0.00397903
[...]
  band No.  band energies     occupation 
      1     -47.3167      2.00000
      2     -47.3079      2.00000
      3     -47.2734      2.00000
      4     -47.2166      2.00000
      5     -47.1786      2.00000
      6     -47.1147      2.00000
      7     -23.8484      2.00000
      8     -23.7803      2.00000
      9     -23.7196      2.00000
     10     -23.6156      2.00000
     11     -23.5062      2.00000
     12     -23.4897      2.00000
     13     -23.4770      2.00000
     14     -23.4457      2.00000
     15     -23.4276      2.00000
     16     -23.3959      2.00000
     17     -23.3914      2.00000
     18     -23.3737      2.00000
     19     -23.3009      2.00000
     20     -23.2737      2.00000
     21     -23.1742      2.00000
     22     -23.1430      2.00000
     23     -23.0771      2.00000
     24     -22.9402      2.00000
     25       0.0710      2.00000
     26       0.5031      2.00000
     27       1.7314      2.00000
     28       2.1450      2.00000
     29       2.2611      2.00000
     30       2.4221      2.00000
     31       2.5224      2.00000
     32       2.6218      2.00000
     33       2.6356      2.00000
     34       2.7370      2.00000
     35       2.9328      2.00000
     36       2.9830      2.00000
     37       3.0404      2.00000
     38       3.0648      2.00000
     39       3.1945      2.00000
     40       3.2066      2.00000
     41       3.2805      2.00000
     42       3.3161      2.00000
     43       3.4032      2.00000
     44       3.4284      2.00000
     45       3.4769      2.00000
     46       3.5111      2.00000
     47       3.6147      2.00000
     48       3.6846      2.00000
     49       3.7789      2.00000
     50       3.8498      2.00000
     51       3.9001      2.00000
     52       4.0048      2.00000
     53       4.0310      2.00000
     54       4.1417      2.00000
     55       4.1704      2.00000
     56       4.2296      2.00000
     57       4.2877      2.00000
     58       4.3191      2.00000
     59       4.6136      2.00000
     60       4.6593      2.00000
     61       4.7325      2.00000
     62       4.8201      2.00000
     63       4.8510      2.00000
     64       4.9055      2.00000
     65       4.9721      2.00000
     66       5.0479      2.00000
     67       5.1081      2.00000
     68       5.1319      2.00000
     69       5.1618      2.00000
     70       5.2163      2.00000
     71       5.2443      2.00000
     72       5.2623      2.00000
     73       5.2977      2.00000
     74       5.3259      2.00000
     75       5.4102      2.00000
     76       5.4496      2.00000
     77       5.5078      2.00000
     78       5.5746      2.00000
     79       5.6387      2.00000
     80       5.7289      2.00000
     81       5.7661      2.00000
     82       5.7972      2.00000
     83       5.8577      2.00000
     84       5.8789      2.00000
     85       5.9342      2.00000
     86       5.9524      2.00000
     87       6.0155      2.00001
     88       6.0630      2.00005
     89       6.1000      2.00014
     90       6.1557      2.00061
     91       6.1837      2.00122
     92       6.2396      2.00425
     93       6.2718      2.00802
     94       6.3018      2.01367
     95       6.3514      2.02889
     96       6.4023      2.05118
     97       6.4799      2.06937
     98       6.5364      2.01364
     99       6.5599      1.95672
    100       6.6175      1.70546
    101       6.6759      1.29463
    102       6.7691      0.53335
    103       6.8026      0.30995
    104       6.8244      0.19247
    105       6.9028     -0.04018
    106       7.0662     -0.03089
    107       7.1229     -0.01322
    108       7.2026     -0.00281
    109       7.4543     -0.00000
    110       7.5095     -0.00000
    111       7.6386     -0.00000
    112       7.8071     -0.00000
    113       7.8764     -0.00000
    114       7.9562     -0.00000
    115       8.0314     -0.00000
    116       8.0978     -0.00000
    117       8.1973     -0.00000
    118       8.2084     -0.00000
    119       8.3009     -0.00000
    120       8.3624     -0.00000
    121       8.4479     -0.00000
    122       8.5263     -0.00000
    123       8.6618     -0.00000
    124       8.7175     -0.00000
    125       8.7512     -0.00000
    126       8.7988     -0.00000
    127       8.8753     -0.00000
    128       8.9435     -0.00000


--------------------------------------------------------------------------------------------------------


 soft charge-density along one line, spin component           1
         0         1         2         3         4         5         6         7         8         9
 total charge-density along one line
 
 pseudopotential strength for first ion, spin component:           1
  5.551 -20.930  -0.003  -0.001  -0.003   0.006   0.003   0.006
-20.930   9.811  -0.004  -0.002  -0.004   0.000   0.000   0.000
 -0.003  -0.004 -10.487   0.000   0.001   6.745  -0.000  -0.001
 -0.001  -0.002   0.000 -10.485  -0.001  -0.000   6.742   0.001
 -0.003  -0.004   0.001  -0.001 -10.487  -0.001   0.001   6.744
  0.006   0.000   6.745  -0.000  -0.001   7.469   0.000   0.001
  0.003   0.000  -0.000   6.742   0.001   0.000   7.471  -0.001
  0.006   0.000  -0.001   0.001   6.744   0.001  -0.001   7.469
  0.001   0.000  -0.002  -0.000  -0.003   0.003   0.000   0.003
  0.000  -0.000  -0.001  -0.003  -0.000   0.002   0.003   0.000
  0.000   0.001   0.001  -0.002   0.001  -0.001   0.002  -0.002
 -0.001  -0.000  -0.000  -0.002  -0.001   0.000   0.003   0.002
 -0.000   0.000   0.002  -0.000  -0.003  -0.002   0.000   0.003
  0.001   0.000  -0.003  -0.000  -0.004   0.004   0.000   0.004
  0.000  -0.000  -0.001  -0.004  -0.000   0.002   0.004   0.000
  0.001   0.001   0.001  -0.003   0.002  -0.002   0.003  -0.002
 -0.001  -0.000  -0.000  -0.003  -0.001   0.000   0.004   0.002
 -0.000   0.000   0.002  -0.000  -0.004  -0.003   0.000   0.004
 total augmentation occupancy for first ion, spin component:           1
  1.996  -0.036  -0.000   0.000  -0.000  -0.000   0.000   0.000   0.001   0.002   0.001  -0.006   0.000  -0.001  -0.002  -0.001
 -0.036   1.495  -0.002   0.003   0.000   0.006  -0.004   0.006   0.017   0.021  -0.024  -0.003  -0.012  -0.008  -0.013   0.010
 -0.000  -0.002   1.998  -0.000   0.000  -0.024   0.000  -0.000   0.004   0.009   0.005  -0.002   0.006  -0.002  -0.004  -0.003
  0.000   0.003  -0.000   1.998   0.000   0.000  -0.024  -0.001  -0.000  -0.008  -0.003   0.001  -0.001  -0.000   0.004   0.002
 -0.000   0.000   0.000   0.000   1.999  -0.000  -0.001  -0.025  -0.012   0.001   0.002   0.008  -0.006   0.006  -0.000  -0.001
 -0.000   0.006  -0.024   0.000  -0.000   0.070   0.001   0.000  -0.001  -0.020  -0.007   0.007  -0.010   0.001   0.011   0.004
  0.000  -0.004   0.000  -0.024  -0.001   0.001   0.067   0.002   0.002   0.026   0.006   0.005   0.002  -0.001  -0.014   0.000
  0.000   0.006  -0.000  -0.001  -0.025   0.000   0.002   0.070   0.032  -0.000  -0.006  -0.019   0.013  -0.015  -0.001   0.001
  0.001   0.017   0.004  -0.000  -0.012  -0.001   0.002   0.032   2.944   0.018   0.010   0.075   0.002  -1.178  -0.018  -0.001
  0.002   0.021   0.009  -0.008   0.001  -0.020   0.026  -0.000   0.018   2.970   0.009   0.034  -0.001  -0.017  -1.178  -0.008
  0.001  -0.024   0.005  -0.003   0.002  -0.007   0.006  -0.006   0.010   0.009   2.535  -0.016  -0.001  -0.001  -0.008  -1.092
 -0.006  -0.003  -0.002   0.001   0.008   0.007   0.005  -0.019   0.075   0.034  -0.016   3.005  -0.039  -0.032  -0.010   0.006
  0.000  -0.012   0.006  -0.001  -0.006  -0.010   0.002   0.013   0.002  -0.001  -0.001  -0.039   2.566  -0.001   0.010   0.006
 -0.001  -0.008  -0.002  -0.000   0.006   0.001  -0.001  -0.015  -1.178  -0.017  -0.001  -0.032  -0.001   0.485   0.010  -0.001
 -0.002  -0.013  -0.004   0.004  -0.000   0.011  -0.014  -0.001  -0.018  -1.178  -0.008  -0.010   0.010   0.010   0.482   0.005
 -0.001   0.010  -0.003   0.002  -0.001   0.004   0.000   0.001  -0.001  -0.008  -1.092   0.006   0.006  -0.001   0.005   0.480
  0.004  -0.005   0.000  -0.000  -0.003  -0.003  -0.001   0.010  -0.032  -0.010   0.006  -1.191   0.015   0.014   0.003  -0.002
 -0.000  -0.000  -0.005   0.000   0.003   0.007  -0.000  -0.003  -0.001   0.010   0.006   0.015  -1.103   0.000  -0.008  -0.005


------------------------ aborting loop because EDIFF is reached ----------------------------------------


    CHARGE:  cpu time    0.3076: real time    0.3079
    FORLOC:  cpu time    0.0035: real time    0.0035
    FORNL :  cpu time    1.8789: real time    1.8805
    STRESS:  cpu time    5.6443: real time    5.6493
    FORCOR:  cpu time    0.0135: real time    0.0135
    FORHAR:  cpu time    0.0055: real time    0.0055
    MIXING:  cpu time    0.0010: real time    0.0011
    OFIELD:  cpu time    0.0010: real time    0.0001

  FORCE on cell =-STRESS in cart. coord.  units (eV):
  Direction    XX          YY          ZZ          XY          YZ          ZX
  --------------------------------------------------------------------------------------
  Alpha Z  1355.76136  1355.76136  1355.76136
  Ewald   -3991.71539 -3968.71309 -4056.64525   -72.46595   147.35500   -21.68784
  Hartree   968.84543   977.67003   914.68908   -80.70732   115.42698   -20.20437
  E(xc)    -917.45616  -917.38163  -917.45236     0.39947     0.06782    -0.00566
  Local    -298.29366  -330.79081  -179.26826   155.24362  -264.25131    41.51336
  n-local  -345.97902  -347.03486  -343.76706     3.12026    -1.38921    -0.62023
  augment   246.28783   246.41893   245.91880    -0.64761     0.30777     0.18319
  Kinetic  2968.04957  2969.40383  2966.31858    -3.89664     2.22385     0.44950
  Fock        0.00000     0.00000     0.00000     0.00000     0.00000     0.00000
  -------------------------------------------------------------------------------------
  Total     -14.50005   -14.66623   -14.44510     1.04583    -0.25910    -0.37205
  in kB     -46.82457   -47.36120   -46.64713     3.37727    -0.83671    -1.20146
  external pressure =      -46.94 kB  Pullay stress =        0.00 kB


 VOLUME and BASIS-vectors are now :
 -----------------------------------------------------------------------------
  energy-cutoff  :      400.00
  volume of cell :      496.14
      direct lattice vectors                 reciprocal lattice vectors
     0.000000000  0.000000000  6.420000000    -0.020768432 -0.051921080  0.155763240
     8.025000000  1.605000000  1.605000000     0.124610592  0.000000000  0.000000000
     0.000000000  9.630000000  3.210000000    -0.020768432  0.103842160  0.000000000

  length of vectors
     6.420000000  8.339824638 10.150911289     0.165497170  0.124610592  0.105898640


 FORCES acting on ions
    electron-ion (+dipol)            ewald-force                    non-local-force                 convergence-correction
 -----------------------------------------------------------------------------------------------
   0.917E+02 0.112E+03 -.431E+02   -.922E+02 -.112E+03 0.424E+02   -.151E+00 -.322E+00 0.380E+00   0.596E-03 -.171E-01 0.492E-02
   -.414E+02 -.235E+03 0.901E+02   0.411E+02 0.236E+03 -.901E+02   -.592E-01 -.853E-01 -.155E+00   -.452E-02 0.287E-01 -.379E-01
   -.832E+02 0.220E+03 -.830E+02   0.828E+02 -.220E+03 0.830E+02   0.264E+00 0.254E+00 0.157E-01   -.288E-01 -.813E-01 -.178E-01
   0.213E+03 -.499E+02 -.129E+03   -.213E+03 0.486E+02 0.130E+03   0.107E+00 0.529E+00 -.289E+00   -.895E-01 0.432E-01 -.134E-01
   0.744E+02 0.164E+03 0.205E+03   -.744E+02 -.163E+03 -.206E+03   -.108E+00 -.324E+00 0.422E+00   0.252E-01 -.301E-01 0.312E-01
   -.160E+03 -.134E+03 -.826E+02   0.161E+03 0.134E+03 0.825E+02   -.113E+00 -.432E+00 0.602E-01   0.149E-01 0.633E-02 0.439E-02
   0.114E+02 0.269E+02 0.198E+02   -.117E+02 -.271E+02 -.196E+02   -.226E-01 0.152E+00 0.191E+00   0.461E-02 0.103E-01 -.439E-02
   -.244E+02 -.774E+02 -.416E+02   0.245E+02 0.779E+02 0.416E+02   0.274E-01 0.716E-01 0.377E-01   0.202E-01 0.281E-01 0.177E-01
   -.168E+01 -.363E+01 0.251E+01   0.154E+01 0.369E+01 -.256E+01   -.165E+00 -.131E-01 -.683E-01   0.180E-02 -.361E-02 -.395E-01
   -.954E+02 0.353E+02 -.881E+02   0.955E+02 -.354E+02 0.881E+02   0.215E-01 0.238E+00 -.796E-01   0.609E-02 -.779E-03 0.131E-01
   -.125E+03 0.300E+02 0.881E+02   0.125E+03 -.302E+02 -.881E+02   0.204E+00 0.212E+00 0.107E+00   -.830E-02 -.147E-01 -.126E-01
   0.227E+02 0.731E+02 0.280E+02   -.231E+02 -.728E+02 -.281E+02   -.220E+00 0.456E-01 -.489E-01   -.804E-02 -.628E-02 0.167E-01
   -.717E+02 -.600E+02 -.808E+02   0.714E+02 0.595E+02 0.812E+02   0.319E-01 0.322E-01 0.403E+00   0.206E-01 0.171E-01 0.187E-01
   -.512E+02 -.897E+02 0.807E+02   0.510E+02 0.892E+02 -.812E+02   -.254E+00 0.169E+00 -.396E+00   0.177E-01 0.241E-01 -.187E-01
   0.416E+02 0.212E+02 0.515E+02   -.413E+02 -.217E+02 -.509E+02   -.849E-01 -.105E-02 -.590E-01   0.103E-01 -.126E-01 -.169E-01
   -.311E+02 -.551E+02 0.157E+00   0.309E+02 0.551E+02 -.172E+00   0.239E+00 0.233E+00 0.313E-02   0.106E-01 0.191E-01 0.883E-02
   0.192E+02 -.109E+02 -.583E+02   -.188E+02 0.109E+02 0.584E+02   0.349E+00 0.184E-01 -.109E+00   -.106E-01 -.878E-02 -.112E-02
   -.451E+02 0.552E+02 0.319E+02   0.451E+02 -.553E+02 -.319E+02   0.266E-01 0.282E+00 -.247E-02   0.101E-01 -.218E-01 0.688E-02
   0.550E+02 0.543E+02 -.411E+02   -.549E+02 -.546E+02 0.408E+02   -.879E-01 -.672E-01 -.165E+00   0.102E-01 -.156E-01 0.148E-01
   0.115E+02 -.298E+01 -.120E+00   -.113E+02 0.301E+01 0.138E+00   -.345E+00 -.125E+00 0.321E-01   0.274E-02 0.153E-01 -.747E-02
   0.266E+02 0.542E+02 -.628E+02   -.269E+02 -.537E+02 0.633E+02   0.135E+00 0.890E-01 -.460E-01   0.219E-02 -.165E-01 -.104E-01
   0.315E+02 -.787E+01 0.467E+02   -.310E+02 0.783E+01 -.467E+02   -.753E-01 0.497E-01 0.152E+00   -.974E-02 -.728E-02 0.221E-03
   0.189E+02 -.332E+02 0.209E+02   -.193E+02 0.336E+02 -.212E+02   -.576E-01 0.384E-01 0.310E-01   0.761E-03 -.922E-02 -.662E-02
   0.141E+02 0.735E+02 -.186E+02   -.145E+02 -.734E+02 0.188E+02   -.149E+00 -.876E-01 0.148E-01   -.410E-02 -.877E-02 -.115E-01
   0.490E+02 -.169E+02 -.181E+02   -.489E+02 0.172E+02 0.180E+02   0.508E-01 -.316E+00 -.690E-01   -.188E-01 0.262E-01 0.148E-01
   0.152E+02 -.235E+02 0.181E+02   -.154E+02 0.237E+02 -.180E+02   0.359E+00 -.387E+00 0.942E-01   -.175E-01 0.135E-01 -.146E-01
   -.169E+02 0.264E+02 -.261E+01   0.172E+02 -.265E+02 0.256E+01   -.346E+00 -.135E+00 0.188E+00   0.241E-01 -.451E-02 0.402E-01
   0.992E+02 -.519E+02 0.596E+02   -.992E+02 0.518E+02 -.599E+02   0.128E+00 -.278E+00 -.204E+00   -.303E-01 0.296E-01 0.815E-02
   0.173E+01 -.583E+02 -.317E+02   -.200E+01 0.582E+02 0.317E+02   0.205E+00 0.281E+00 0.199E+00   -.523E-02 -.158E-01 0.100E-01
   -.505E+02 -.351E+02 0.381E+02   0.513E+02 0.354E+02 -.381E+02   0.373E+00 -.865E-01 0.942E-02   0.424E-02 0.149E-01 -.291E-02
 -----------------------------------------------------------------------------------------------
   -.214E+00 -.297E-01 -.613E+00   0.192E-12 0.426E-13 -.135E-12   0.284E+00 0.357E-01 0.651E+00   -.484E-01 0.175E-02 -.528E-02
 
 
 POSITION                                       TOTAL-FORCE (eV/Angst)
 -----------------------------------------------------------------------------------
      0.00000      0.00000      0.00000        -0.678537     -0.400657     -0.327607
      0.00000      3.21000      6.42000        -0.333256      0.653381     -0.123763
      3.21000      6.42000      3.21000        -0.139453     -0.198184     -0.076659
      6.42000      3.21000      3.21000        -0.189538     -0.737370      0.302141
      1.60500      8.02500      8.02500        -0.103486      0.420160     -0.447296
      3.21000      9.63000      9.63000         1.053194     -0.152125     -0.030740
      0.00000      0.00000      3.21000        -0.300059     -0.019578      0.390619
      0.00000      3.21000      3.21000         0.165937      0.627072     -0.028181
      1.60500      4.81500      4.81500        -0.309783      0.043654     -0.150308
      4.81500      8.02500      4.81500         0.142459      0.115545     -0.098372
      4.81500      8.02500      8.02500         0.403227      0.012931      0.117864
      6.42000      9.63000      9.63000        -0.592705      0.261172     -0.186133
      1.60500      1.60500      1.60500        -0.230031     -0.435423      0.862960
      1.60500      1.60500      4.81500        -0.430114     -0.282483     -0.863286
      0.00000      6.42000      6.42000         0.200411     -0.560240      0.497344
      3.21000      3.21000      6.42000         0.129967      0.191169     -0.004090
      4.81500      4.81500      4.81500         0.759457      0.005528     -0.047936
      3.21000      6.42000      6.42000         0.093971      0.172394     -0.012273
      0.00000      6.42000      3.21000        -0.043594     -0.335477     -0.456284
      3.21000      3.21000      3.21000        -0.154808     -0.078496      0.041477
      1.60500      8.02500      4.81500        -0.164495      0.634942      0.404433
      4.81500      4.81500      8.02500         0.409344      0.000921      0.154728
      6.42000      6.42000      6.42000        -0.490757      0.433870     -0.187516
      6.42000      9.63000      6.42000        -0.553665      0.043242      0.189916
      4.81500      1.60500      1.60500         0.110544     -0.058670     -0.103915
      4.81500      1.60500      4.81500         0.171887     -0.216715      0.147665
      1.60500      4.81500      8.02500        -0.058608     -0.222896      0.170977
      6.42000      3.21000      6.42000         0.025522     -0.334974     -0.438528
      6.42000      6.42000      3.21000        -0.065696      0.223726      0.266945
      3.21000      9.63000      6.42000         1.172666      0.193580      0.035818
 -----------------------------------------------------------------------------------
    total drift:                                0.021446      0.007757      0.032077


--------------------------------------------------------------------------------------------------------



  FREE ENERGIE OF THE ION-ELECTRON SYSTEM (eV)
  ---------------------------------------------------
  free  energy   TOTEN  =      -346.11070616 eV

  energy  without entropy=     -346.10089503  energy(sigma->0) =     -346.10743578
 


--------------------------------------------------------------------------------------------------------


    POTLOK:  cpu time    0.0124: real time    0.0133


--------------------------------------------------------------------------------------------------------


 stress matrix after NEB project (eV)
    -14.50005      1.04583     -0.37205
      1.04583    -14.66623     -0.25910
     -0.37205     -0.25910    -14.44510
  FORCES: max atom, RMS     1.189076    0.639455
  FORCE total and by dimension    3.502437    1.172666
  Stress total and by dimension   25.231121   14.666229
 writing wavefunctions
     LOOP+:  cpu time  301.5887: real time  308.3025
    4ORBIT:  cpu time    0.0000: real time    0.0000

 total amount of memory used by VASP MPI-rank0    76321. kBytes
=======================================================================

   base      :      30000. kBytes
   nonlr-proj:       4092. kBytes
   fftplans  :       1097. kBytes
   grid      :       2043. kBytes
   one-center:        124. kBytes
   wavefun   :      38965. kBytes
 
  
  
 General timing and accounting informations for this job:
 ========================================================
  
                  Total CPU time used (sec):      308.310
                            User time (sec):      304.741
                          System time (sec):        3.569
                         Elapsed time (sec):      315.271
  
                   Maximum memory used (kb):      118824.
                   Average memory used (kb):           0.
  
                          Minor page faults:        38611
                          Major page faults:            0
                 Voluntary context switches:         1115
