 running on   32 total cores
 distrk:  each k-point on   32 cores,    1 groups
 distr:  one band on    4 cores,    8 groups
 using from now: INCAR     
 vasp.5.4.4.18Apr17-6-g9f103f2a35 (build Aug 09 2018 16:20:53) complex          
  
 POSCAR found type information on POSCAR  Nb Mo Ta Ti W 
 POSCAR found :  5 types and      30 ions
 scaLAPACK will be used

 ----------------------------------------------------------------------------- 
|                                                                             |
|  ADVICE TO THIS USER RUNNING 'VASP/VAMP'   (HEAR YOUR MASTER'S VOICE ...):  |
|                                                                             |
|      You enforced a specific xc-type in the INCAR file,                     |
|      a different type was found on the POTCAR file                          |
|          I HOPE YOU KNOW, WHAT YOU ARE  DOING                               |
|                                                                             |
 ----------------------------------------------------------------------------- 

 LDA part: xc-table for Pade appr. of Perdew
 POSCAR found type information on POSCAR  Nb Mo Ta Ti W 
 POSCAR found :  5 types and      30 ions
 POSCAR, INCAR and KPOINTS ok, starting setup
 FFT: planning ...
 WAVECAR not read
 entering main loop
       N       E                     dE             d eps       ncg     rms          rms(c)
DAV:   1     0.160531092695E+04    0.16053E+04   -0.75256E+04 16216   0.124E+03
DAV:   2    -0.536303455983E+02   -0.16589E+04   -0.15957E+04 16128   0.395E+02
DAV:   3    -0.335313332931E+03   -0.28168E+03   -0.26453E+03 28368   0.137E+02
DAV:   4    -0.366847174461E+03   -0.31534E+02   -0.29604E+02 25816   0.430E+01
DAV:   5    -0.369502635663E+03   -0.26555E+01   -0.26166E+01 28256   0.150E+01    0.774E+01
DAV:   6    -0.358046138167E+03    0.11456E+02   -0.10775E+02 23488   0.281E+01    0.369E+01
DAV:   7    -0.371560675000E+03   -0.13515E+02   -0.35805E+02 23520   0.670E+01    0.272E+01
DAV:   8    -0.352614184765E+03    0.18946E+02   -0.38857E+01 22128   0.165E+01    0.151E+01
DAV:   9    -0.347455044451E+03    0.51591E+01   -0.10568E+01 23176   0.999E+00    0.876E+00
DAV:  10    -0.346430464060E+03    0.10246E+01   -0.54487E+00 24608   0.628E+00    0.501E+00
DAV:  11    -0.346174387461E+03    0.25608E+00   -0.23794E+00 23480   0.407E+00    0.259E+00
DAV:  12    -0.346168105482E+03    0.62820E-02   -0.82757E-01 23568   0.258E+00    0.193E+00
DAV:  13    -0.346141951007E+03    0.26154E-01   -0.64508E-01 24680   0.222E+00    0.138E+00
DAV:  14    -0.346114374258E+03    0.27577E-01   -0.22160E-01 25008   0.134E+00    0.690E-01
DAV:  15    -0.346115409535E+03   -0.10353E-02   -0.71932E-02 23912   0.725E-01    0.614E-01
DAV:  16    -0.346113953958E+03    0.14556E-02   -0.29275E-02 23832   0.467E-01    0.469E-01
DAV:  17    -0.346111389798E+03    0.25642E-02   -0.12501E-02 21664   0.312E-01    0.222E-01
DAV:  18    -0.346110802612E+03    0.58719E-03   -0.53797E-03 21864   0.209E-01    0.104E-01
DAV:  19    -0.346110723595E+03    0.79017E-04   -0.16373E-03 20896   0.118E-01    0.577E-02
DAV:  20    -0.346110706164E+03    0.17432E-04   -0.42155E-04 15648   0.695E-02
   1 F= -.34611071E+03 E0= -.34610744E+03  d E =-.981114E-02
 writing wavefunctions
VASP is done!
