<?xml version="1.0" encoding="ISO-8859-1"?>
<modeling>
 <generator>
  <i name="program" type="string">vasp </i>
  <i name="version" type="string">5.4.4.18Apr17-6-g9f103f2a35  </i>
  <i name="subversion" type="string">(build Aug 09 2018 16:20:53) complex            parallel </i>
  <i name="platform" type="string">LinuxIFC </i>
  <i name="date" type="string">2020 04 12 </i>
  <i name="time" type="string">14:16:29 </i>
 </generator>
 <incar>
  <i type="string" name="SYSTEM"> Nb - Mo - Ta - Ti - W SQS</i>
  <i type="string" name="PREC">normal</i>
  <i type="int" name="IALGO">    38</i>
  <i type="int" name="ICHARG">     2</i>
  <i type="int" name="IBRION">     1</i>
  <i type="int" name="ISYM">     0</i>
  <i name="ENCUT">    400.00000000</i>
  <i type="string" name="LREAL"> Auto</i>
  <i type="int" name="ISMEAR">     1</i>
  <i name="SIGMA">      0.20000000</i>
  <v type="int" name="KPOINT_BSE">    -1     0     0     0</v>
  <i type="string" name="GGA"> PS</i>
 </incar>
 <structure name="primitive_cell" >
  <crystal>
   <varray name="basis" >
    <v>       0.00000000       0.00000000       6.42000000 </v>
    <v>       8.02500000       1.60500000       1.60500000 </v>
    <v>       0.00000000       9.63000000       3.21000000 </v>
   </varray>
   <i name="volume">    496.14241500 </i>
   <varray name="rec_basis" >
    <v>      -0.02076843      -0.05192108       0.15576324 </v>
    <v>       0.12461059       0.00000000       0.00000000 </v>
    <v>      -0.02076843       0.10384216       0.00000000 </v>
   </varray>
  </crystal>
  <varray name="positions" >
   <v>       0.00000000       0.00000000       0.00000000 </v>
   <v>      -0.13333333      -0.20000000      -0.13333333 </v>
   <v>       0.13333333       0.20000000       0.13333333 </v>
   <v>       0.30000000       0.20000000      -0.20000000 </v>
   <v>      -0.30000000      -0.20000000       0.20000000 </v>
   <v>      -0.36666667       0.20000000       0.13333333 </v>
   <v>       0.36666667      -0.20000000      -0.13333333 </v>
   <v>       0.20000000      -0.20000000       0.20000000 </v>
   <v>      -0.20000000       0.20000000      -0.20000000 </v>
   <v>      -0.16666667       0.00000000       0.33333333 </v>
   <v>       0.16666667       0.00000000      -0.33333333 </v>
   <v>      -0.06666667       0.40000000      -0.06666667 </v>
   <v>       0.06666667      -0.40000000       0.06666667 </v>
   <v>      -0.50000000       0.00000000       0.00000000 </v>
   <v>       0.33333333       0.00000000       0.33333333 </v>
   <v>      -0.33333333       0.00000000      -0.33333333 </v>
   <v>      -0.43333333      -0.40000000       0.06666667 </v>
   <v>       0.43333333       0.40000000      -0.06666667 </v>
   <v>       0.10000000       0.40000000      -0.40000000 </v>
   <v>      -0.10000000      -0.40000000       0.40000000 </v>
   <v>       0.23333333      -0.40000000      -0.26666667 </v>
   <v>      -0.23333333       0.40000000       0.26666667 </v>
   <v>      -0.03333333       0.20000000       0.46666667 </v>
   <v>       0.03333333      -0.20000000      -0.46666667 </v>
   <v>       0.46666667       0.20000000       0.46666667 </v>
   <v>      -0.46666667      -0.20000000      -0.46666667 </v>
   <v>      -0.26666667      -0.40000000      -0.26666667 </v>
   <v>       0.26666667       0.40000000       0.26666667 </v>
   <v>       0.40000000      -0.40000000       0.40000000 </v>
   <v>      -0.40000000       0.40000000      -0.40000000 </v>
  </varray>
 </structure>
 <varray name="primitive_index" >
  <v type="int" >        1 </v>
  <v type="int" >       12 </v>
  <v type="int" >       13 </v>
  <v type="int" >       21 </v>
  <v type="int" >       28 </v>
  <v type="int" >       14 </v>
  <v type="int" >       24 </v>
  <v type="int" >        4 </v>
  <v type="int" >        5 </v>
  <v type="int" >        2 </v>
  <v type="int" >       19 </v>
  <v type="int" >        6 </v>
  <v type="int" >       25 </v>
  <v type="int" >        7 </v>
  <v type="int" >        8 </v>
  <v type="int" >       15 </v>
  <v type="int" >       26 </v>
  <v type="int" >       30 </v>
  <v type="int" >        3 </v>
  <v type="int" >       22 </v>
  <v type="int" >       10 </v>
  <v type="int" >       16 </v>
  <v type="int" >       27 </v>
  <v type="int" >       29 </v>
  <v type="int" >        9 </v>
  <v type="int" >       23 </v>
  <v type="int" >       11 </v>
  <v type="int" >       20 </v>
  <v type="int" >       17 </v>
  <v type="int" >       18 </v>
 </varray>
 <kpoints>
  <generation param="Gamma">
   <v type="int" name="divisions">       5        5        5 </v>
   <v name="usershift">      0.00000000       0.00000000       0.00000000 </v>
   <v name="genvec1">      0.20000000       0.00000000       0.00000000 </v>
   <v name="genvec2">      0.00000000       0.20000000       0.00000000 </v>
   <v name="genvec3">      0.00000000       0.00000000       0.20000000 </v>
   <v name="shift">      0.00000000       0.00000000       0.00000000 </v>
  </generation>
  <varray name="kpointlist" >
   <v>       0.00000000       0.00000000       0.00000000 </v>
   <v>       0.20000000       0.00000000       0.00000000 </v>
   <v>       0.40000000       0.00000000       0.00000000 </v>
   <v>       0.00000000       0.20000000       0.00000000 </v>
   <v>       0.20000000       0.20000000       0.00000000 </v>
   <v>       0.40000000       0.20000000       0.00000000 </v>
   <v>      -0.40000000       0.20000000       0.00000000 </v>
   <v>      -0.20000000       0.20000000       0.00000000 </v>
   <v>       0.00000000       0.40000000       0.00000000 </v>
   <v>       0.20000000       0.40000000       0.00000000 </v>
   <v>       0.40000000       0.40000000       0.00000000 </v>
   <v>      -0.40000000       0.40000000       0.00000000 </v>
   <v>      -0.20000000       0.40000000       0.00000000 </v>
   <v>       0.00000000       0.00000000       0.20000000 </v>
   <v>       0.20000000       0.00000000       0.20000000 </v>
   <v>       0.40000000       0.00000000       0.20000000 </v>
   <v>      -0.40000000      -0.00000000       0.20000000 </v>
   <v>      -0.20000000      -0.00000000       0.20000000 </v>
   <v>       0.00000000       0.20000000       0.20000000 </v>
   <v>       0.20000000       0.20000000       0.20000000 </v>
   <v>       0.40000000       0.20000000       0.20000000 </v>
   <v>      -0.40000000       0.20000000       0.20000000 </v>
   <v>      -0.20000000       0.20000000       0.20000000 </v>
   <v>       0.00000000       0.40000000       0.20000000 </v>
   <v>       0.20000000       0.40000000       0.20000000 </v>
   <v>       0.40000000       0.40000000       0.20000000 </v>
   <v>      -0.40000000       0.40000000       0.20000000 </v>
   <v>      -0.20000000       0.40000000       0.20000000 </v>
   <v>       0.00000000      -0.40000000       0.20000000 </v>
   <v>       0.20000000      -0.40000000       0.20000000 </v>
   <v>       0.40000000      -0.40000000       0.20000000 </v>
   <v>      -0.40000000      -0.40000000       0.20000000 </v>
   <v>      -0.20000000      -0.40000000       0.20000000 </v>
   <v>       0.00000000      -0.20000000       0.20000000 </v>
   <v>       0.20000000      -0.20000000       0.20000000 </v>
   <v>       0.40000000      -0.20000000       0.20000000 </v>
   <v>      -0.40000000      -0.20000000       0.20000000 </v>
   <v>      -0.20000000      -0.20000000       0.20000000 </v>
   <v>       0.00000000       0.00000000       0.40000000 </v>
   <v>       0.20000000       0.00000000       0.40000000 </v>
   <v>       0.40000000       0.00000000       0.40000000 </v>
   <v>      -0.40000000      -0.00000000       0.40000000 </v>
   <v>      -0.20000000      -0.00000000       0.40000000 </v>
   <v>       0.00000000       0.20000000       0.40000000 </v>
   <v>       0.20000000       0.20000000       0.40000000 </v>
   <v>       0.40000000       0.20000000       0.40000000 </v>
   <v>      -0.40000000       0.20000000       0.40000000 </v>
   <v>      -0.20000000       0.20000000       0.40000000 </v>
   <v>       0.00000000       0.40000000       0.40000000 </v>
   <v>       0.20000000       0.40000000       0.40000000 </v>
   <v>       0.40000000       0.40000000       0.40000000 </v>
   <v>      -0.40000000       0.40000000       0.40000000 </v>
   <v>      -0.20000000       0.40000000       0.40000000 </v>
   <v>       0.00000000      -0.40000000       0.40000000 </v>
   <v>       0.20000000      -0.40000000       0.40000000 </v>
   <v>       0.40000000      -0.40000000       0.40000000 </v>
   <v>      -0.40000000      -0.40000000       0.40000000 </v>
   <v>      -0.20000000      -0.40000000       0.40000000 </v>
   <v>       0.00000000      -0.20000000       0.40000000 </v>
   <v>       0.20000000      -0.20000000       0.40000000 </v>
   <v>       0.40000000      -0.20000000       0.40000000 </v>
   <v>      -0.40000000      -0.20000000       0.40000000 </v>
   <v>      -0.20000000      -0.20000000       0.40000000 </v>
  </varray>
  <varray name="weights" >
   <v>       0.00800000 </v>
   <v>       0.01600000 </v>
   <v>       0.01600000 </v>
   <v>       0.01600000 </v>
   <v>       0.01600000 </v>
   <v>       0.01600000 </v>
   <v>       0.01600000 </v>
   <v>       0.01600000 </v>
   <v>       0.01600000 </v>
   <v>       0.01600000 </v>
   <v>       0.01600000 </v>
   <v>       0.01600000 </v>
   <v>       0.01600000 </v>
   <v>       0.01600000 </v>
   <v>       0.01600000 </v>
   <v>       0.01600000 </v>
   <v>       0.01600000 </v>
   <v>       0.01600000 </v>
   <v>       0.01600000 </v>
   <v>       0.01600000 </v>
   <v>       0.01600000 </v>
   <v>       0.01600000 </v>
   <v>       0.01600000 </v>
   <v>       0.01600000 </v>
   <v>       0.01600000 </v>
   <v>       0.01600000 </v>
   <v>       0.01600000 </v>
   <v>       0.01600000 </v>
   <v>       0.01600000 </v>
   <v>       0.01600000 </v>
   <v>       0.01600000 </v>
   <v>       0.01600000 </v>
   <v>       0.01600000 </v>
   <v>       0.01600000 </v>
   <v>       0.01600000 </v>
   <v>       0.01600000 </v>
   <v>       0.01600000 </v>
   <v>       0.01600000 </v>
   <v>       0.01600000 </v>
   <v>       0.01600000 </v>
   <v>       0.01600000 </v>
   <v>       0.01600000 </v>
   <v>       0.01600000 </v>
   <v>       0.01600000 </v>
   <v>       0.01600000 </v>
   <v>       0.01600000 </v>
   <v>       0.01600000 </v>
   <v>       0.01600000 </v>
   <v>       0.01600000 </v>
   <v>       0.01600000 </v>
   <v>       0.01600000 </v>
   <v>       0.01600000 </v>
   <v>       0.01600000 </v>
   <v>       0.01600000 </v>
   <v>       0.01600000 </v>
   <v>       0.01600000 </v>
   <v>       0.01600000 </v>
   <v>       0.01600000 </v>
   <v>       0.01600000 </v>
   <v>       0.01600000 </v>
   <v>       0.01600000 </v>
   <v>       0.01600000 </v>
   <v>       0.01600000 </v>
  </varray>
 </kpoints>
 <parameters>
  <separator name="general" >
   <i type="string" name="SYSTEM">Nb - Mo - Ta - Ti - W SQS</i>
   <i type="logical" name="LCOMPAT"> F  </i>
  </separator>
  <separator name="electronic" >
   <i type="string" name="PREC">normal</i>
   <i name="ENMAX">    400.00000000</i>
   <i name="ENAUG">    455.65900000</i>
   <i name="EDIFF">      0.00010000</i>
   <i type="int" name="IALGO">    38</i>
   <i type="int" name="IWAVPR">    10</i>
   <i type="int" name="NBANDS">   128</i>
   <i name="NELECT">    204.00000000</i>
   <i type="int" name="TURBO">     0</i>
   <i type="int" name="IRESTART">     0</i>
   <i type="int" name="NREBOOT">     0</i>
   <i type="int" name="NMIN">     0</i>
   <i name="EREF">      0.00000000</i>
   <separator name="electronic smearing" >
    <i type="int" name="ISMEAR">     1</i>
    <i name="SIGMA">      0.20000000</i>
    <i name="KSPACING">      0.50000000</i>
    <i type="logical" name="KGAMMA"> T  </i>
   </separator>
   <separator name="electronic projectors" >
    <i type="logical" name="LREAL"> T  </i>
    <v name="ROPT">     -0.00050000     -0.00050000     -0.00050000     -0.00050000     -0.00050000</v>
    <i type="int" name="LMAXPAW">  -100</i>
    <i type="int" name="LMAXMIX">     2</i>
    <i type="logical" name="NLSPLINE"> F  </i>
   </separator>
   <separator name="electronic startup" >
    <i type="int" name="ISTART">     0</i>
    <i type="int" name="ICHARG">     2</i>
    <i type="int" name="INIWAV">     1</i>
   </separator>
   <separator name="electronic spin" >
    <i type="int" name="ISPIN">     1</i>
    <i type="logical" name="LNONCOLLINEAR"> F  </i>
    <v name="MAGMOM">      1.00000000      1.00000000      1.00000000      1.00000000      1.00000000      1.00000000      1.00000000      1.00000000      1.00000000      1.00000000      1.00000000      1.00000000      1.00000000      1.00000000      1.00000000      1.00000000      1.00000000      1.00000000      1.00000000      1.00000000
      1.00000000      1.00000000      1.00000000      1.00000000      1.00000000      1.00000000      1.00000000      1.00000000      1.00000000      1.00000000</v>
    <i name="NUPDOWN">     -1.00000000</i>
    <i type="logical" name="LSORBIT"> F  </i>
    <v name="SAXIS">      0.00000000      0.00000000      1.00000000</v>
    <i type="logical" name="LSPIRAL"> F  </i>
    <v name="QSPIRAL">      0.00000000      0.00000000      0.00000000</v>
    <i type="logical" name="LZEROZ"> F  </i>
   </separator>
   <separator name="electronic exchange-correlation" >
    <i type="logical" name="LASPH"> F  </i>
    <i type="logical" name="LMETAGGA"> F  </i>
   </separator>
   <separator name="electronic convergence" >
    <i type="int" name="NELM">    60</i>
    <i type="int" name="NELMDL">    -5</i>
    <i type="int" name="NELMIN">     2</i>
    <i name="ENINI">    400.00000000</i>
    <separator name="electronic convergence detail" >
     <i type="logical" name="LDIAG"> T  </i>
     <i type="logical" name="LSUBROT"> F  </i>
     <i name="WEIMIN">      0.00000000</i>
     <i name="EBREAK">      0.00000020</i>
     <i name="DEPER">      0.30000000</i>
     <i type="int" name="NRMM">     4</i>
     <i name="TIME">      0.40000000</i>
    </separator>
   </separator>
   <separator name="electronic mixer" >
    <i name="AMIX">      0.40000000</i>
    <i name="BMIX">      1.00000000</i>
    <i name="AMIN">      0.10000000</i>
    <i name="AMIX_MAG">      1.60000000</i>
    <i name="BMIX_MAG">      1.00000000</i>
    <separator name="electronic mixer details" >
     <i type="int" name="IMIX">     4</i>
     <i type="logical" name="MIXFIRST"> F  </i>
     <i type="int" name="MAXMIX">   -45</i>
     <i name="WC">    100.00000000</i>
     <i type="int" name="INIMIX">     1</i>
     <i type="int" name="MIXPRE">     1</i>
     <i type="int" name="MREMOVE">     5</i>
    </separator>
   </separator>
   <separator name="electronic dipolcorrection" >
    <i type="logical" name="LDIPOL"> F  </i>
    <i type="logical" name="LMONO"> F  </i>
    <i type="int" name="IDIPOL">     0</i>
    <i name="EPSILON">      1.00000000</i>
    <v name="DIPOL">   -100.00000000   -100.00000000   -100.00000000</v>
    <i name="EFIELD">      0.00000000</i>
   </separator>
  </separator>
  <separator name="grids" >
   <i type="int" name="NGX">    32</i>
   <i type="int" name="NGY">    42</i>
   <i type="int" name="NGZ">    50</i>
   <i type="int" name="NGXF">    64</i>
   <i type="int" name="NGYF">    84</i>
   <i type="int" name="NGZF">   100</i>
   <i type="logical" name="ADDGRID"> F  </i>
  </separator>
  <separator name="ionic" >
   <i type="int" name="NSW">     0</i>
   <i type="int" name="IBRION">    -1</i>
   <i type="int" name="MDALGO">     0</i>
   <i type="int" name="ISIF">     2</i>
   <i name="PSTRESS">      0.00000000</i>
   <i name="EDIFFG">      0.00100000</i>
   <i type="int" name="NFREE">     0</i>
   <i name="POTIM">      0.50000000</i>
   <i name="SMASS">     -3.00000000</i>
   <i name="SCALEE">      1.00000000</i>
  </separator>
  <separator name="ionic md" >
   <i name="TEBEG">      0.00010000</i>
   <i name="TEEND">      0.00010000</i>
   <i type="int" name="NBLOCK">     1</i>
   <i type="int" name="KBLOCK">     1</i>
   <i type="int" name="NPACO">   256</i>
   <i name="APACO">     16.00000000</i>
  </separator>
  <separator name="symmetry" >
   <i type="int" name="ISYM">     0</i>
   <i name="SYMPREC">      0.00001000</i>
  </separator>
  <separator name="dos" >
   <i type="int" name="LORBIT">     0</i>
   <v name="RWIGS">     -1.00000000     -1.00000000     -1.00000000     -1.00000000     -1.00000000</v>
   <i type="int" name="NEDOS">   301</i>
   <i name="EMIN">     10.00000000</i>
   <i name="EMAX">    -10.00000000</i>
   <i name="EFERMI">      0.00000000</i>
  </separator>
  <separator name="writing" >
   <i type="int" name="NWRITE">     2</i>
   <i type="logical" name="LWAVE"> T  </i>
   <i type="logical" name="LDOWNSAMPLE"> F  </i>
   <i type="logical" name="LCHARG"> T  </i>
   <i type="logical" name="LPARD"> F  </i>
   <i type="logical" name="LVTOT"> F  </i>
   <i type="logical" name="LVHAR"> F  </i>
   <i type="logical" name="LELF"> F  </i>
   <i type="logical" name="LOPTICS"> F  </i>
   <v name="STM">      0.00000000      0.00000000      0.00000000      0.00000000      0.00000000      0.00000000      0.00000000</v>
  </separator>
  <separator name="performance" >
   <i type="int" name="NPAR">     8</i>
   <i type="int" name="NSIM">     4</i>
   <i type="int" name="NBLK">    -1</i>
   <i type="logical" name="LPLANE"> T  </i>
   <i type="logical" name="LSCALAPACK"> T  </i>
   <i type="logical" name="LSCAAWARE"> F  </i>
   <i type="logical" name="LSCALU"> F  </i>
   <i type="logical" name="LASYNC"> F  </i>
   <i type="logical" name="LORBITALREAL"> F  </i>
  </separator>
  <separator name="miscellaneous" >
   <i type="int" name="IDIOT">     3</i>
   <i type="int" name="ISPECIAL">     0</i>
   <i type="logical" name="LMUSIC"> F  </i>
   <v name="POMASS">     92.91000000     95.94000000    180.94800000     47.88000000    183.85000000</v>
   <v name="DARWINR">      0.00000000      0.00000000      0.00000000      0.00000000      0.00000000</v>
   <v name="DARWINV">      1.00000000      1.00000000      1.00000000      1.00000000      1.00000000</v>
   <i type="logical" name="LCORR"> T  </i>
  </separator>
  <i type="logical" name="GGA_COMPAT"> T  </i>
  <i type="logical" name="LBERRY"> F  </i>
  <i type="int" name="ICORELEVEL">     0</i>
  <i type="logical" name="LDAU"> F  </i>
  <i type="int" name="I_CONSTRAINED_M">     0</i>
  <separator name="electronic exchange-correlation" >
   <i type="string" name="GGA">PS</i>
   <i type="int" name="VOSKOWN">     0</i>
   <i type="logical" name="LHFCALC"> F  </i>
   <i type="string" name="PRECFOCK"></i>
   <i type="logical" name="LSYMGRAD"> F  </i>
   <i type="logical" name="LHFONE"> F  </i>
   <i type="logical" name="LRHFCALC"> F  </i>
   <i type="logical" name="LTHOMAS"> F  </i>
   <i type="logical" name="LMODELHF"> F  </i>
   <i name="ENCUT4O">     -1.00000000</i>
   <i type="int" name="EXXOEP">     0</i>
   <i type="int" name="FOURORBIT">     0</i>
   <i name="AEXX">      0.00000000</i>
   <i name="HFALPHA">      0.00000000</i>
   <i name="MCALPHA">      0.00000000</i>
   <i name="ALDAX">      1.00000000</i>
   <i name="AGGAX">      1.00000000</i>
   <i name="ALDAC">      1.00000000</i>
   <i name="AGGAC">      1.00000000</i>
   <i type="int" name="NKREDX">     1</i>
   <i type="int" name="NKREDY">     1</i>
   <i type="int" name="NKREDZ">     1</i>
   <i type="logical" name="SHIFTRED"> F  </i>
   <i type="logical" name="ODDONLY"> F  </i>
   <i type="logical" name="EVENONLY"> F  </i>
   <i type="int" name="LMAXFOCK">     0</i>
   <i type="int" name="NMAXFOCKAE">     0</i>
   <i type="logical" name="LFOCKAEDFT"> F  </i>
   <i name="HFSCREEN">      0.00000000</i>
   <i name="HFSCREENC">      0.00000000</i>
   <i type="int" name="NBANDSGWLOW">     0</i>
  </separator>
  <separator name="vdW DFT" >
   <i type="logical" name="LUSE_VDW"> F  </i>
   <i name="Zab_VDW">     -0.84910000</i>
   <i name="PARAM1">      0.12340000</i>
   <i name="PARAM2">      1.00000000</i>
   <i name="PARAM3">      0.00000000</i>
  </separator>
  <separator name="model GW" >
   <i type="int" name="MODEL_GW">     0</i>
   <i name="MODEL_EPS0">      9.92284830</i>
   <i name="MODEL_ALPHA">      1.00000000</i>
  </separator>
  <separator name="linear response parameters" >
   <i type="logical" name="LEPSILON"> F  </i>
   <i type="logical" name="LRPA"> F  </i>
   <i type="logical" name="LNABLA"> F  </i>
   <i type="logical" name="LVEL"> F  </i>
   <i type="int" name="KINTER">     0</i>
   <i name="CSHIFT">      0.10000000</i>
   <i name="OMEGAMAX">     -1.00000000</i>
   <i name="DEG_THRESHOLD">      0.00200000</i>
   <i name="RTIME">     -0.10000000</i>
   <i name="WPLASMAI">      0.00000000</i>
   <v name="DFIELD">      0.00000000      0.00000000      0.00000000</v>
   <v name="WPLASMA">      0.00000000      0.00000000      0.00000000      0.00000000      0.00000000      0.00000000      0.00000000      0.00000000      0.00000000</v>
  </separator>
  <separator name="orbital magnetization" >
   <i type="logical" name="NUCIND"> F  </i>
   <v name="MAGPOS">      0.00000000      0.00000000      0.00000000</v>
   <i type="logical" name="LNICSALL"> T  </i>
   <i type="logical" name="ORBITALMAG"> F  </i>
   <i type="logical" name="LMAGBLOCH"> F  </i>
   <i type="logical" name="LCHIMAG"> F  </i>
   <i type="logical" name="LGAUGE"> T  </i>
   <i type="int" name="MAGATOM">     0</i>
   <v name="MAGDIPOL">      0.00000000      0.00000000      0.00000000</v>
   <v name="AVECCONST">      0.00000000      0.00000000      0.00000000</v>
  </separator>
  <separator name="response functions" >
   <i type="logical" name="LADDER"> F  </i>
   <i type="logical" name="LRPAFORCE"> F  </i>
   <i type="logical" name="LFXC"> F  </i>
   <i type="logical" name="LHARTREE"> T  </i>
   <i type="int" name="IBSE">     0</i>
   <v type="int" name="KPOINT">    -1     0     0     0</v>
   <i type="logical" name="LTCTE"> F  </i>
   <i type="logical" name="LTETE"> F  </i>
   <i type="logical" name="LTRIPLET"> F  </i>
   <i type="logical" name="LFXCEPS"> F  </i>
   <i type="logical" name="LFXHEG"> F  </i>
   <i type="int" name="NATURALO">     2</i>
   <i type="logical" name="L2ORDER"> F  </i>
   <i type="logical" name="LMP2LT"> F  </i>
   <i type="logical" name="LUSEW"> F  </i>
   <i name="ENCUTGW">     -2.00000000</i>
   <i name="ENCUTGWSOFT">     -2.00000000</i>
   <i name="ENCUTLF">     -1.00000000</i>
   <i type="int" name="LMAXMP2">    -1</i>
   <i name="SCISSOR">      0.00000000</i>
   <i type="int" name="NOMEGA">     0</i>
   <i type="int" name="NOMEGAR">     0</i>
   <i type="int" name="NBANDSGW">    -1</i>
   <i type="int" name="NBANDSO">    -1</i>
   <i type="int" name="NBANDSV">    -1</i>
   <i type="int" name="NELM">     1</i>
   <i type="int" name="NELMHF">     1</i>
   <i type="int" name="DIM">     3</i>
   <i type="int" name="ANTIRES">     0</i>
   <i name="OMEGAMAX">    -30.00000000</i>
   <i name="OMEGAMIN">    -30.00000000</i>
   <i name="OMEGATL">   -200.00000000</i>
   <i type="int" name="OMEGAGRID">   140</i>
   <i name="CSHIFT">     -0.10000000</i>
   <i type="logical" name="SELFENERGY"> F  </i>
   <i type="logical" name="LSPECTRAL"> F  </i>
   <i type="logical" name="LSPECTRALGW"> F  </i>
   <i type="logical" name="LSINGLES"> F  </i>
   <i type="logical" name="LFERMIGW"> F  </i>
   <i type="logical" name="ODDONLYGW"> F  </i>
   <i type="logical" name="EVENONLYGW"> F  </i>
   <i type="int" name="NKREDLFX">     1</i>
   <i type="int" name="NKREDLFY">     1</i>
   <i type="int" name="NKREDLFZ">     1</i>
   <i type="int" name="MAXMEM">  2800</i>
   <i type="int" name="TELESCOPE">     0</i>
   <i type="int" name="TAUPAR">     1</i>
   <i type="int" name="OMEGAPAR">    -1</i>
   <i name="LAMBDA">      1.00000000</i>
  </separator>
  <separator name="External order field" >
   <i name="OFIELD_KAPPA">      0.00000000</i>
   <v name="OFIELD_K">      0.00000000      0.00000000      0.00000000</v>
   <i name="OFIELD_Q6_NEAR">      0.00000000</i>
   <i name="OFIELD_Q6_FAR">      0.00000000</i>
   <i name="OFIELD_A">      0.00000000</i>
  </separator>
  <separator name="solvation model" >
   <i type="logical" name="LSOL"> F  </i>
  </separator>
 </parameters>
 <atominfo>
  <atoms>      30 </atoms>
  <types>       5 </types>
  <array name="atoms" >
   <dimension dim="1">ion</dimension>
   <field type="string">element</field>
   <field type="int">atomtype</field>
   <set>
    <rc><c>Nb</c><c>   1</c></rc>
    <rc><c>Nb</c><c>   1</c></rc>
    <rc><c>Nb</c><c>   1</c></rc>
    <rc><c>Nb</c><c>   1</c></rc>
    <rc><c>Nb</c><c>   1</c></rc>
    <rc><c>Nb</c><c>   1</c></rc>
    <rc><c>Mo</c><c>   2</c></rc>
    <rc><c>Mo</c><c>   2</c></rc>
    <rc><c>Mo</c><c>   2</c></rc>
    <rc><c>Mo</c><c>   2</c></rc>
    <rc><c>Mo</c><c>   2</c></rc>
    <rc><c>Mo</c><c>   2</c></rc>
    <rc><c>Ta</c><c>   3</c></rc>
    <rc><c>Ta</c><c>   3</c></rc>
    <rc><c>Ta</c><c>   3</c></rc>
    <rc><c>Ta</c><c>   3</c></rc>
    <rc><c>Ta</c><c>   3</c></rc>
    <rc><c>Ta</c><c>   3</c></rc>
    <rc><c>Ti</c><c>   4</c></rc>
    <rc><c>Ti</c><c>   4</c></rc>
    <rc><c>Ti</c><c>   4</c></rc>
    <rc><c>Ti</c><c>   4</c></rc>
    <rc><c>Ti</c><c>   4</c></rc>
    <rc><c>Ti</c><c>   4</c></rc>
    <rc><c>W </c><c>   5</c></rc>
    <rc><c>W </c><c>   5</c></rc>
    <rc><c>W </c><c>   5</c></rc>
    <rc><c>W </c><c>   5</c></rc>
    <rc><c>W </c><c>   5</c></rc>
    <rc><c>W </c><c>   5</c></rc>
   </set>
  </array>
  <array name="atomtypes" >
   <dimension dim="1">type</dimension>
   <field type="int">atomspertype</field>
   <field type="string">element</field>
   <field>mass</field>
   <field>valence</field>
   <field type="string">pseudopotential</field>
   <set>
    <rc><c>   6</c><c>Nb</c><c>     92.91000000</c><c>     13.00000000</c><c>  PAW_PBE Nb_sv 25May2007               </c></rc>
    <rc><c>   6</c><c>Mo</c><c>     95.94000000</c><c>      6.00000000</c><c>  PAW_PBE Mo 08Apr2002                  </c></rc>
    <rc><c>   6</c><c>Ta</c><c>    180.94800000</c><c>      5.00000000</c><c>  PAW_PBE Ta 17Jan2003                  </c></rc>
    <rc><c>   6</c><c>Ti</c><c>     47.88000000</c><c>      4.00000000</c><c>  PAW_PBE Ti 08Apr2002                  </c></rc>
    <rc><c>   6</c><c>W </c><c>    183.85000000</c><c>      6.00000000</c><c>  PAW_PBE W 08Apr2002                   </c></rc>
   </set>
  </array>
 </atominfo>
 <structure name="initialpos" >
  <crystal>
   <varray name="basis" >
    <v>       0.00000000       0.00000000       6.42000000 </v>
    <v>       8.02500000       1.60500000       1.60500000 </v>
    <v>       0.00000000       9.63000000       3.21000000 </v>
   </varray>
   <i name="volume">    496.14241500 </i>
   <varray name="rec_basis" >
    <v>      -0.02076843      -0.05192108       0.15576324 </v>
    <v>       0.12461059       0.00000000       0.00000000 </v>
    <v>      -0.02076843       0.10384216       0.00000000 </v>
   </varray>
  </crystal>
  <varray name="positions" >
   <v>       0.00000000       0.00000000       0.00000000 </v>
   <v>       0.83333333       0.00000000       0.33333333 </v>
   <v>       0.10000000       0.40000000       0.60000000 </v>
   <v>       0.20000000       0.80000000       0.20000000 </v>
   <v>       0.80000000       0.20000000       0.80000000 </v>
   <v>       0.93333333       0.40000000       0.93333333 </v>
   <v>       0.50000000       0.00000000       0.00000000 </v>
   <v>       0.33333333       0.00000000       0.33333333 </v>
   <v>       0.46666667       0.20000000       0.46666667 </v>
   <v>       0.23333333       0.60000000       0.73333333 </v>
   <v>       0.73333333       0.60000000       0.73333333 </v>
   <v>       0.86666667       0.80000000       0.86666667 </v>
   <v>       0.13333333       0.20000000       0.13333333 </v>
   <v>       0.63333333       0.20000000       0.13333333 </v>
   <v>       0.66666667       0.00000000       0.66666667 </v>
   <v>       0.76666667       0.40000000       0.26666667 </v>
   <v>       0.40000000       0.60000000       0.40000000 </v>
   <v>       0.60000000       0.40000000       0.60000000 </v>
   <v>       0.16666667       0.00000000       0.66666667 </v>
   <v>       0.26666667       0.40000000       0.26666667 </v>
   <v>       0.30000000       0.20000000       0.80000000 </v>
   <v>       0.90000000       0.60000000       0.40000000 </v>
   <v>       0.53333333       0.80000000       0.53333333 </v>
   <v>       0.36666667       0.80000000       0.86666667 </v>
   <v>       0.06666667       0.60000000       0.06666667 </v>
   <v>       0.56666667       0.60000000       0.06666667 </v>
   <v>       0.96666667       0.20000000       0.46666667 </v>
   <v>       0.70000000       0.80000000       0.20000000 </v>
   <v>       0.03333333       0.80000000       0.53333333 </v>
   <v>       0.43333333       0.40000000       0.93333333 </v>
  </varray>
 </structure>
 <calculation>
  <scstep>
   <time name="dav">   10.68   10.70</time>
   <time name="total">   10.70   10.73</time>
   <energy>
    <i name="alphaZ">   1355.76136246 </i>
    <i name="ewald"> -12017.04278427 </i>
    <i name="hartreedc">  -3024.54981287 </i>
    <i name="XCdc">   -903.88887319 </i>
    <i name="pawpsdc">  12303.85264859 </i>
    <i name="pawaedc"> -10739.97191893 </i>
    <i name="eentropy">     -0.00384766 </i>
    <i name="bandstr">   1420.30152718 </i>
    <i name="atom">  13210.85262565 </i>
    <i name="e_fr_energy">   1605.31092695 </i>
    <i name="e_wo_entrp">   1605.31477461 </i>
    <i name="e_0_energy">   1605.31220951 </i>
   </energy>
  </scstep>
  <scstep>
   <time name="dav">   10.74   10.75</time>
   <time name="total">   10.74   10.76</time>
   <energy>
    <i name="e_fr_energy">    -53.63034560 </i>
    <i name="e_wo_entrp">    -53.63477573 </i>
    <i name="e_0_energy">    -53.63182231 </i>
   </energy>
  </scstep>
  <scstep>
   <time name="dav">   17.05   17.08</time>
   <time name="total">   17.06   17.08</time>
   <energy>
    <i name="e_fr_energy">   -335.31333293 </i>
    <i name="e_wo_entrp">   -335.31451474 </i>
    <i name="e_0_energy">   -335.31372687 </i>
   </energy>
  </scstep>
  <scstep>
   <time name="dav">   15.60   15.63</time>
   <time name="total">   15.61   15.63</time>
   <energy>
    <i name="e_fr_energy">   -366.84717446 </i>
    <i name="e_wo_entrp">   -366.85620642 </i>
    <i name="e_0_energy">   -366.85018511 </i>
   </energy>
  </scstep>
  <scstep>
   <time name="dav">   16.93   16.96</time>
   <time name="total">   17.25   17.27</time>
   <energy>
    <i name="e_fr_energy">   -369.50263566 </i>
    <i name="e_wo_entrp">   -369.51240980 </i>
    <i name="e_0_energy">   -369.50589371 </i>
   </energy>
  </scstep>
  <scstep>
   <time name="dav">   14.51   14.53</time>
   <time name="total">   14.84   14.86</time>
   <energy>
    <i name="e_fr_energy">   -358.04613817 </i>
    <i name="e_wo_entrp">   -358.04066379 </i>
    <i name="e_0_energy">   -358.04431337 </i>
   </energy>
  </scstep>
  <scstep>
   <time name="dav">   14.54   14.55</time>
   <time name="total">   14.86   14.88</time>
   <energy>
    <i name="e_fr_energy">   -371.56067500 </i>
    <i name="e_wo_entrp">   -371.56905608 </i>
    <i name="e_0_energy">   -371.56346869 </i>
   </energy>
  </scstep>
  <scstep>
   <time name="dav">   13.84   13.85</time>
   <time name="total">   14.17   14.19</time>
   <energy>
    <i name="e_fr_energy">   -352.61418476 </i>
    <i name="e_wo_entrp">   -352.62109532 </i>
    <i name="e_0_energy">   -352.61648828 </i>
   </energy>
  </scstep>
  <scstep>
   <time name="dav">   14.36   14.38</time>
   <time name="total">   14.70   14.73</time>
   <energy>
    <i name="e_fr_energy">   -347.45504445 </i>
    <i name="e_wo_entrp">   -347.45686341 </i>
    <i name="e_0_energy">   -347.45565077 </i>
   </energy>
  </scstep>
  <scstep>
   <time name="dav">   15.10   15.12</time>
   <time name="total">   15.43   15.45</time>
   <energy>
    <i name="e_fr_energy">   -346.43046406 </i>
    <i name="e_wo_entrp">   -346.42648503 </i>
    <i name="e_0_energy">   -346.42913772 </i>
   </energy>
  </scstep>
  <scstep>
   <time name="dav">   14.50   14.52</time>
   <time name="total">   14.83   14.85</time>
   <energy>
    <i name="e_fr_energy">   -346.17438746 </i>
    <i name="e_wo_entrp">   -346.16364893 </i>
    <i name="e_0_energy">   -346.17080795 </i>
   </energy>
  </scstep>
  <scstep>
   <time name="dav">   14.58   14.59</time>
   <time name="total">   14.90   14.92</time>
   <energy>
    <i name="e_fr_energy">   -346.16810548 </i>
    <i name="e_wo_entrp">   -346.16146283 </i>
    <i name="e_0_energy">   -346.16589126 </i>
   </energy>
  </scstep>
  <scstep>
   <time name="dav">   15.13   15.15</time>
   <time name="total">   15.45   15.48</time>
   <energy>
    <i name="e_fr_energy">   -346.14195101 </i>
    <i name="e_wo_entrp">   -346.13059239 </i>
    <i name="e_0_energy">   -346.13816480 </i>
   </energy>
  </scstep>
  <scstep>
   <time name="dav">   15.32   15.34</time>
   <time name="total">   15.65   15.68</time>
   <energy>
    <i name="e_fr_energy">   -346.11437426 </i>
    <i name="e_wo_entrp">   -346.10487073 </i>
    <i name="e_0_energy">   -346.11120641 </i>
   </energy>
  </scstep>
  <scstep>
   <time name="dav">   14.94   14.95</time>
   <time name="total">   15.28   15.30</time>
   <energy>
    <i name="e_fr_energy">   -346.11540954 </i>
    <i name="e_wo_entrp">   -346.10488417 </i>
    <i name="e_0_energy">   -346.11190108 </i>
   </energy>
  </scstep>
  <scstep>
   <time name="dav">   14.71   14.72</time>
   <time name="total">   15.04   15.05</time>
   <energy>
    <i name="e_fr_energy">   -346.11395396 </i>
    <i name="e_wo_entrp">   -346.10382559 </i>
    <i name="e_0_energy">   -346.11057784 </i>
   </energy>
  </scstep>
  <scstep>
   <time name="dav">   13.66   13.67</time>
   <time name="total">   13.99   14.00</time>
   <energy>
    <i name="e_fr_energy">   -346.11138980 </i>
    <i name="e_wo_entrp">   -346.10136235 </i>
    <i name="e_0_energy">   -346.10804732 </i>
   </energy>
  </scstep>
  <scstep>
   <time name="dav">   13.77   13.79</time>
   <time name="total">   14.11   14.13</time>
   <energy>
    <i name="e_fr_energy">   -346.11080261 </i>
    <i name="e_wo_entrp">   -346.10091788 </i>
    <i name="e_0_energy">   -346.10750770 </i>
   </energy>
  </scstep>
  <scstep>
   <time name="dav">   13.26   13.27</time>
   <time name="total">   13.59   13.60</time>
   <energy>
    <i name="e_fr_energy">   -346.11072360 </i>
    <i name="e_wo_entrp">   -346.10083701 </i>
    <i name="e_0_energy">   -346.10742807 </i>
   </energy>
  </scstep>
  <scstep>
   <time name="dav">   10.64   10.65</time>
   <time name="total">   10.66   10.67</time>
   <energy>
    <i name="alphaZ">   1355.76136246 </i>
    <i name="ewald"> -12017.04278427 </i>
    <i name="hartreedc">  -2860.59127207 </i>
    <i name="XCdc">   -898.06800661 </i>
    <i name="pawpsdc">  21315.32797861 </i>
    <i name="pawaedc"> -19755.56348946 </i>
    <i name="eentropy">     -0.00981114 </i>
    <i name="bandstr">   -696.77730934 </i>
    <i name="atom">  13210.85262565 </i>
    <i name="e_fr_energy">   -346.11070616 </i>
    <i name="e_wo_entrp">   -346.10089503 </i>
    <i name="e_0_energy">   -346.10743578 </i>
   </energy>
  </scstep>
  <structure>
   <crystal>
    <varray name="basis" >
     <v>       0.00000000       0.00000000       6.42000000 </v>
     <v>       8.02500000       1.60500000       1.60500000 </v>
     <v>       0.00000000       9.63000000       3.21000000 </v>
    </varray>
    <i name="volume">    496.14241500 </i>
    <varray name="rec_basis" >
     <v>      -0.02076843      -0.05192108       0.15576324 </v>
     <v>       0.12461059       0.00000000       0.00000000 </v>
     <v>      -0.02076843       0.10384216       0.00000000 </v>
    </varray>
   </crystal>
   <varray name="positions" >
    <v>       0.00000000       0.00000000       0.00000000 </v>
    <v>       0.83333333       0.00000000       0.33333333 </v>
    <v>       0.10000000       0.40000000       0.60000000 </v>
    <v>       0.20000000       0.80000000       0.20000000 </v>
    <v>       0.80000000       0.20000000       0.80000000 </v>
    <v>       0.93333333       0.40000000       0.93333333 </v>
    <v>       0.50000000       0.00000000       0.00000000 </v>
    <v>       0.33333333       0.00000000       0.33333333 </v>
    <v>       0.46666667       0.20000000       0.46666667 </v>
    <v>       0.23333333       0.60000000       0.73333333 </v>
    <v>       0.73333333       0.60000000       0.73333333 </v>
    <v>       0.86666667       0.80000000       0.86666667 </v>
    <v>       0.13333333       0.20000000       0.13333333 </v>
    <v>       0.63333333       0.20000000       0.13333333 </v>
    <v>       0.66666667       0.00000000       0.66666667 </v>
    <v>       0.76666667       0.40000000       0.26666667 </v>
    <v>       0.40000000       0.60000000       0.40000000 </v>
    <v>       0.60000000       0.40000000       0.60000000 </v>
    <v>       0.16666667       0.00000000       0.66666667 </v>
    <v>       0.26666667       0.40000000       0.26666667 </v>
    <v>       0.30000000       0.20000000       0.80000000 </v>
    <v>       0.90000000       0.60000000       0.40000000 </v>
    <v>       0.53333333       0.80000000       0.53333333 </v>
    <v>       0.36666667       0.80000000       0.86666667 </v>
    <v>       0.06666667       0.60000000       0.06666667 </v>
    <v>       0.56666667       0.60000000       0.06666667 </v>
    <v>       0.96666667       0.20000000       0.46666667 </v>
    <v>       0.70000000       0.80000000       0.20000000 </v>
    <v>       0.03333333       0.80000000       0.53333333 </v>
    <v>       0.43333333       0.40000000       0.93333333 </v>
   </varray>
  </structure>
  <varray name="forces" >
   <v>      -0.67853724      -0.40065680      -0.32760690 </v>
   <v>      -0.33325574       0.65338131      -0.12376305 </v>
   <v>      -0.13945325      -0.19818418      -0.07665945 </v>
   <v>      -0.18953774      -0.73736958       0.30214097 </v>
   <v>      -0.10348593       0.42015951      -0.44729629 </v>
   <v>       1.05319373      -0.15212456      -0.03073960 </v>
   <v>      -0.30005868      -0.01957763       0.39061850 </v>
   <v>       0.16593662       0.62707193      -0.02818077 </v>
   <v>      -0.30978272       0.04365367      -0.15030795 </v>
   <v>       0.14245893       0.11554514      -0.09837156 </v>
   <v>       0.40322663       0.01293102       0.11786432 </v>
   <v>      -0.59270452       0.26117224      -0.18613344 </v>
   <v>      -0.23003134      -0.43542284       0.86296049 </v>
   <v>      -0.43011404      -0.28248306      -0.86328629 </v>
   <v>       0.20041050      -0.56023953       0.49734439 </v>
   <v>       0.12996682       0.19116918      -0.00409045 </v>
   <v>       0.75945654       0.00552791      -0.04793556 </v>
   <v>       0.09397051       0.17239356      -0.01227328 </v>
   <v>      -0.04359388      -0.33547654      -0.45628384 </v>
   <v>      -0.15480764      -0.07849641       0.04147715 </v>
   <v>      -0.16449493       0.63494167       0.40443268 </v>
   <v>       0.40934413       0.00092117       0.15472763 </v>
   <v>      -0.49075677       0.43387001      -0.18751569 </v>
   <v>      -0.55366514       0.04324236       0.18991571 </v>
   <v>       0.11054403      -0.05867024      -0.10391483 </v>
   <v>       0.17188683      -0.21671523       0.14766497 </v>
   <v>      -0.05860802      -0.22289572       0.17097736 </v>
   <v>       0.02552240      -0.33497412      -0.43852814 </v>
   <v>      -0.06569589       0.22372622       0.26694500 </v>
   <v>       1.17266579       0.19357955       0.03581793 </v>
  </varray>
  <varray name="stress" >
   <v>     -46.82457071       3.37726727      -1.20146485 </v>
   <v>       3.37726728     -47.36120034      -0.83670667 </v>
   <v>      -1.20146485      -0.83670666     -46.64712624 </v>
  </varray>
  <energy>
   <i name="e_fr_energy">   -346.11070616 </i>
   <i name="e_wo_entrp">   -346.10743578 </i>
   <i name="e_0_energy">     -0.00981114 </i>
  </energy>
  <time name="totalsc">  301.59  308.30</time>
  <eigenvalues>
   <array>
    <dimension dim="1">band</dimension>
    <dimension dim="2">kpoint</dimension>
    <dimension dim="3">spin</dimension>
    <field>eigene</field>
    <field>occ</field>
    <set>
     <set comment="spin 1">
      <set comment="kpoint 1">
       <r>  -47.3173    1.0000 </r>
       <r>  -47.3073    1.0000 </r>
       <r>  -47.2735    1.0000 </r>
       <r>  -47.2167    1.0000 </r>
       <r>  -47.1786    1.0000 </r>
       <r>  -47.1147    1.0000 </r>
       <r>  -23.8477    1.0000 </r>
       <r>  -23.7810    1.0000 </r>
       <r>  -23.7186    1.0000 </r>
       <r>  -23.6135    1.0000 </r>
       <r>  -23.5064    1.0000 </r>
       <r>  -23.4890    1.0000 </r>
       <r>  -23.4754    1.0000 </r>
       <r>  -23.4453    1.0000 </r>
       <r>  -23.4277    1.0000 </r>
       <r>  -23.3983    1.0000 </r>
       <r>  -23.3893    1.0000 </r>
       <r>  -23.3746    1.0000 </r>
       <r>  -23.3007    1.0000 </r>
       <r>  -23.2740    1.0000 </r>
       <r>  -23.1762    1.0000 </r>
       <r>  -23.1424    1.0000 </r>
       <r>  -23.0772    1.0000 </r>
       <r>  -22.9395    1.0000 </r>
       <r>   -0.5751    1.0000 </r>
       <r>    1.3127    1.0000 </r>
       <r>    1.8144    1.0000 </r>
       <r>    1.9681    1.0000 </r>
       <r>    2.1789    1.0000 </r>
       <r>    2.2943    1.0000 </r>
       <r>    2.3611    1.0000 </r>
       <r>    2.4601    1.0000 </r>
       <r>    2.5659    1.0000 </r>
       <r>    2.7590    1.0000 </r>
       <r>    2.8046    1.0000 </r>
       <r>    2.9246    1.0000 </r>
       <r>    2.9489    1.0000 </r>
       <r>    2.9871    1.0000 </r>
       <r>    3.0731    1.0000 </r>
       <r>    3.1769    1.0000 </r>
       <r>    3.2209    1.0000 </r>
       <r>    3.2550    1.0000 </r>
       <r>    3.2943    1.0000 </r>
       <r>    3.3280    1.0000 </r>
       <r>    3.3653    1.0000 </r>
       <r>    3.3886    1.0000 </r>
       <r>    3.4801    1.0000 </r>
       <r>    3.5530    1.0000 </r>
       <r>    3.5838    1.0000 </r>
       <r>    3.6830    1.0000 </r>
       <r>    3.7031    1.0000 </r>
       <r>    3.7775    1.0000 </r>
       <r>    3.8524    1.0000 </r>
       <r>    4.0485    1.0000 </r>
       <r>    4.2353    1.0000 </r>
       <r>    4.3325    1.0000 </r>
       <r>    4.4816    1.0000 </r>
       <r>    4.5012    1.0000 </r>
       <r>    4.6410    1.0000 </r>
       <r>    4.6966    1.0000 </r>
       <r>    4.7260    1.0000 </r>
       <r>    4.7649    1.0000 </r>
       <r>    4.8087    1.0000 </r>
       <r>    4.8652    1.0000 </r>
       <r>    4.9094    1.0000 </r>
       <r>    4.9280    1.0000 </r>
       <r>    4.9753    1.0000 </r>
       <r>    4.9997    1.0000 </r>
       <r>    5.0570    1.0000 </r>
       <r>    5.0923    1.0000 </r>
       <r>    5.1472    1.0000 </r>
       <r>    5.1650    1.0000 </r>
       <r>    5.2495    1.0000 </r>
       <r>    5.3219    1.0000 </r>
       <r>    5.4170    1.0000 </r>
       <r>    5.4436    1.0000 </r>
       <r>    5.5606    1.0000 </r>
       <r>    5.6430    1.0000 </r>
       <r>    5.7309    1.0000 </r>
       <r>    5.7655    1.0000 </r>
       <r>    5.7967    1.0000 </r>
       <r>    6.0196    1.0000 </r>
       <r>    6.1592    1.0003 </r>
       <r>    6.1924    1.0008 </r>
       <r>    6.2924    1.0058 </r>
       <r>    6.3497    1.0141 </r>
       <r>    6.3803    1.0205 </r>
       <r>    6.4434    1.0337 </r>
       <r>    6.4645    1.0354 </r>
       <r>    6.4932    1.0322 </r>
       <r>    6.5725    0.9579 </r>
       <r>    6.6050    0.8870 </r>
       <r>    6.6359    0.7957 </r>
       <r>    6.6498    0.7472 </r>
       <r>    6.6752    0.6503 </r>
       <r>    6.7118    0.4982 </r>
       <r>    6.7363    0.3952 </r>
       <r>    6.7665    0.2763 </r>
       <r>    6.8218    0.1025 </r>
       <r>    6.9600   -0.0354 </r>
       <r>    7.0111   -0.0277 </r>
       <r>    7.0471   -0.0195 </r>
       <r>    7.0608   -0.0165 </r>
       <r>    7.0781   -0.0132 </r>
       <r>    7.1359   -0.0053 </r>
       <r>    7.2001   -0.0015 </r>
       <r>    7.2120   -0.0011 </r>
       <r>    7.2914   -0.0002 </r>
       <r>    7.3747   -0.0000 </r>
       <r>    7.4540   -0.0000 </r>
       <r>    7.5634   -0.0000 </r>
       <r>    7.6251   -0.0000 </r>
       <r>    7.6788   -0.0000 </r>
       <r>    7.7065   -0.0000 </r>
       <r>    7.7659   -0.0000 </r>
       <r>    7.8840   -0.0000 </r>
       <r>    8.0453   -0.0000 </r>
       <r>    8.1663   -0.0000 </r>
       <r>    8.2158   -0.0000 </r>
       <r>    8.3458   -0.0000 </r>
       <r>    8.3577   -0.0000 </r>
       <r>    8.3648   -0.0000 </r>
       <r>    8.3832   -0.0000 </r>
       <r>    8.4365   -0.0000 </r>
       <r>    8.4673   -0.0000 </r>
       <r>    8.5596   -0.0000 </r>
       <r>    8.5777   -0.0000 </r>
       <r>    8.5996   -0.0000 </r>
      </set>
      <set comment="kpoint 2">
       <r>  -47.3171    1.0000 </r>
       <r>  -47.3075    1.0000 </r>
       <r>  -47.2735    1.0000 </r>
       <r>  -47.2167    1.0000 </r>
       <r>  -47.1786    1.0000 </r>
       <r>  -47.1147    1.0000 </r>
       <r>  -23.8488    1.0000 </r>
       <r>  -23.7810    1.0000 </r>
       <r>  -23.7198    1.0000 </r>
       <r>  -23.6136    1.0000 </r>
       <r>  -23.5067    1.0000 </r>
       <r>  -23.4896    1.0000 </r>
       <r>  -23.4761    1.0000 </r>
       <r>  -23.4460    1.0000 </r>
       <r>  -23.4277    1.0000 </r>
       <r>  -23.3981    1.0000 </r>
       <r>  -23.3892    1.0000 </r>
       <r>  -23.3744    1.0000 </r>
       <r>  -23.3009    1.0000 </r>
       <r>  -23.2739    1.0000 </r>
       <r>  -23.1752    1.0000 </r>
       <r>  -23.1430    1.0000 </r>
       <r>  -23.0771    1.0000 </r>
       <r>  -22.9395    1.0000 </r>
       <r>   -0.3400    1.0000 </r>
       <r>    1.2989    1.0000 </r>
       <r>    1.9184    1.0000 </r>
       <r>    2.0470    1.0000 </r>
       <r>    2.2082    1.0000 </r>
       <r>    2.3256    1.0000 </r>
       <r>    2.4459    1.0000 </r>
       <r>    2.6062    1.0000 </r>
       <r>    2.6429    1.0000 </r>
       <r>    2.7430    1.0000 </r>
       <r>    2.8700    1.0000 </r>
       <r>    2.9059    1.0000 </r>
       <r>    2.9923    1.0000 </r>
       <r>    3.0687    1.0000 </r>
       <r>    3.1146    1.0000 </r>
       <r>    3.2080    1.0000 </r>
       <r>    3.2448    1.0000 </r>
       <r>    3.2945    1.0000 </r>
       <r>    3.3594    1.0000 </r>
       <r>    3.4062    1.0000 </r>
       <r>    3.4728    1.0000 </r>
       <r>    3.5020    1.0000 </r>
       <r>    3.5416    1.0000 </r>
       <r>    3.6771    1.0000 </r>
       <r>    3.7761    1.0000 </r>
       <r>    3.8263    1.0000 </r>
       <r>    3.9023    1.0000 </r>
       <r>    3.9921    1.0000 </r>
       <r>    4.0217    1.0000 </r>
       <r>    4.0635    1.0000 </r>
       <r>    4.2640    1.0000 </r>
       <r>    4.4637    1.0000 </r>
       <r>    4.5018    1.0000 </r>
       <r>    4.5539    1.0000 </r>
       <r>    4.5997    1.0000 </r>
       <r>    4.6362    1.0000 </r>
       <r>    4.6935    1.0000 </r>
       <r>    4.7317    1.0000 </r>
       <r>    4.7935    1.0000 </r>
       <r>    4.8622    1.0000 </r>
       <r>    4.8957    1.0000 </r>
       <r>    4.9428    1.0000 </r>
       <r>    4.9802    1.0000 </r>
       <r>    5.0154    1.0000 </r>
       <r>    5.0715    1.0000 </r>
       <r>    5.1067    1.0000 </r>
       <r>    5.1288    1.0000 </r>
       <r>    5.1902    1.0000 </r>
       <r>    5.2202    1.0000 </r>
       <r>    5.2770    1.0000 </r>
       <r>    5.3574    1.0000 </r>
       <r>    5.4310    1.0000 </r>
       <r>    5.4832    1.0000 </r>
       <r>    5.5705    1.0000 </r>
       <r>    5.6196    1.0000 </r>
       <r>    5.6919    1.0000 </r>
       <r>    5.8047    1.0000 </r>
       <r>    5.8628    1.0000 </r>
       <r>    5.9445    1.0000 </r>
       <r>    6.0021    1.0000 </r>
       <r>    6.0404    1.0000 </r>
       <r>    6.0776    1.0000 </r>
       <r>    6.1076    1.0001 </r>
       <r>    6.1599    1.0003 </r>
       <r>    6.1880    1.0007 </r>
       <r>    6.2360    1.0020 </r>
       <r>    6.2742    1.0042 </r>
       <r>    6.3331    1.0112 </r>
       <r>    6.3821    1.0209 </r>
       <r>    6.4182    1.0291 </r>
       <r>    6.4403    1.0333 </r>
       <r>    6.5098    1.0259 </r>
       <r>    6.5445    0.9983 </r>
       <r>    6.5670    0.9672 </r>
       <r>    6.6557    0.7256 </r>
       <r>    6.6793    0.6337 </r>
       <r>    6.7119    0.4976 </r>
       <r>    6.8359    0.0700 </r>
       <r>    6.8948   -0.0143 </r>
       <r>    6.9313   -0.0326 </r>
       <r>    6.9854   -0.0328 </r>
       <r>    7.0154   -0.0268 </r>
       <r>    7.1060   -0.0087 </r>
       <r>    7.1521   -0.0039 </r>
       <r>    7.1973   -0.0016 </r>
       <r>    7.2590   -0.0004 </r>
       <r>    7.4060   -0.0000 </r>
       <r>    7.4304   -0.0000 </r>
       <r>    7.7452   -0.0000 </r>
       <r>    7.8039   -0.0000 </r>
       <r>    7.8510   -0.0000 </r>
       <r>    7.8960   -0.0000 </r>
       <r>    8.0581   -0.0000 </r>
       <r>    8.2903   -0.0000 </r>
       <r>    8.4961   -0.0000 </r>
       <r>    8.5620   -0.0000 </r>
       <r>    8.5830   -0.0000 </r>
       <r>    8.6131   -0.0000 </r>
       <r>    8.6969   -0.0000 </r>
       <r>    8.7654   -0.0000 </r>
       <r>    8.7992   -0.0000 </r>
       <r>    8.8865   -0.0000 </r>
       <r>    8.9192   -0.0000 </r>
       <r>    9.0290   -0.0000 </r>
      </set>
      <set comment="kpoint 3">
       <r>  -47.3166    1.0000 </r>
       <r>  -47.3077    1.0000 </r>
       <r>  -47.2735    1.0000 </r>
       <r>  -47.2167    1.0000 </r>
       <r>  -47.1787    1.0000 </r>
       <r>  -47.1147    1.0000 </r>
       <r>  -23.8505    1.0000 </r>
       <r>  -23.7812    1.0000 </r>
       <r>  -23.7214    1.0000 </r>
       <r>  -23.6136    1.0000 </r>
       <r>  -23.5071    1.0000 </r>
       <r>  -23.4908    1.0000 </r>
       <r>  -23.4774    1.0000 </r>
       <r>  -23.4468    1.0000 </r>
       <r>  -23.4276    1.0000 </r>
       <r>  -23.3978    1.0000 </r>
       <r>  -23.3890    1.0000 </r>
       <r>  -23.3743    1.0000 </r>
       <r>  -23.3012    1.0000 </r>
       <r>  -23.2736    1.0000 </r>
       <r>  -23.1736    1.0000 </r>
       <r>  -23.1439    1.0000 </r>
       <r>  -23.0769    1.0000 </r>
       <r>  -22.9393    1.0000 </r>
       <r>    0.3073    1.0000 </r>
       <r>    1.2871    1.0000 </r>
       <r>    1.4124    1.0000 </r>
       <r>    1.9468    1.0000 </r>
       <r>    2.2242    1.0000 </r>
       <r>    2.5098    1.0000 </r>
       <r>    2.5731    1.0000 </r>
       <r>    2.7413    1.0000 </r>
       <r>    2.7647    1.0000 </r>
       <r>    2.8662    1.0000 </r>
       <r>    2.9777    1.0000 </r>
       <r>    3.1718    1.0000 </r>
       <r>    3.2985    1.0000 </r>
       <r>    3.3530    1.0000 </r>
       <r>    3.3691    1.0000 </r>
       <r>    3.4564    1.0000 </r>
       <r>    3.5307    1.0000 </r>
       <r>    3.5551    1.0000 </r>
       <r>    3.6202    1.0000 </r>
       <r>    3.6756    1.0000 </r>
       <r>    3.7177    1.0000 </r>
       <r>    3.7903    1.0000 </r>
       <r>    3.8465    1.0000 </r>
       <r>    3.8686    1.0000 </r>
       <r>    3.9070    1.0000 </r>
       <r>    3.9400    1.0000 </r>
       <r>    4.0486    1.0000 </r>
       <r>    4.0707    1.0000 </r>
       <r>    4.1693    1.0000 </r>
       <r>    4.2177    1.0000 </r>
       <r>    4.2621    1.0000 </r>
       <r>    4.3462    1.0000 </r>
       <r>    4.4853    1.0000 </r>
       <r>    4.5006    1.0000 </r>
       <r>    4.5747    1.0000 </r>
       <r>    4.6335    1.0000 </r>
       <r>    4.7259    1.0000 </r>
       <r>    4.7346    1.0000 </r>
       <r>    4.7586    1.0000 </r>
       <r>    4.8175    1.0000 </r>
       <r>    4.8526    1.0000 </r>
       <r>    4.9010    1.0000 </r>
       <r>    4.9502    1.0000 </r>
       <r>    4.9700    1.0000 </r>
       <r>    5.0010    1.0000 </r>
       <r>    5.0326    1.0000 </r>
       <r>    5.0550    1.0000 </r>
       <r>    5.1049    1.0000 </r>
       <r>    5.1749    1.0000 </r>
       <r>    5.1932    1.0000 </r>
       <r>    5.2449    1.0000 </r>
       <r>    5.3219    1.0000 </r>
       <r>    5.3529    1.0000 </r>
       <r>    5.3787    1.0000 </r>
       <r>    5.4038    1.0000 </r>
       <r>    5.4642    1.0000 </r>
       <r>    5.4943    1.0000 </r>
       <r>    5.5797    1.0000 </r>
       <r>    5.6826    1.0000 </r>
       <r>    5.7293    1.0000 </r>
       <r>    5.7839    1.0000 </r>
       <r>    5.8641    1.0000 </r>
       <r>    5.8911    1.0000 </r>
       <r>    5.9406    1.0000 </r>
       <r>    5.9718    1.0000 </r>
       <r>    6.0065    1.0000 </r>
       <r>    6.0474    1.0000 </r>
       <r>    6.0667    1.0000 </r>
       <r>    6.0975    1.0001 </r>
       <r>    6.1523    1.0003 </r>
       <r>    6.1688    1.0004 </r>
       <r>    6.2060    1.0010 </r>
       <r>    6.2678    1.0037 </r>
       <r>    6.3082    1.0076 </r>
       <r>    6.3348    1.0115 </r>
       <r>    6.3795    1.0204 </r>
       <r>    6.4981    1.0307 </r>
       <r>    6.5336    1.0094 </r>
       <r>    6.5646    0.9712 </r>
       <r>    6.6243    0.8324 </r>
       <r>    6.6791    0.6345 </r>
       <r>    6.6903    0.5887 </r>
       <r>    6.7314    0.4158 </r>
       <r>    6.7566    0.3139 </r>
       <r>    6.8374    0.0668 </r>
       <r>    6.9730   -0.0345 </r>
       <r>    7.0357   -0.0221 </r>
       <r>    7.1468   -0.0043 </r>
       <r>    7.5076   -0.0000 </r>
       <r>    7.6806   -0.0000 </r>
       <r>    8.0164   -0.0000 </r>
       <r>    8.2036   -0.0000 </r>
       <r>    8.4272   -0.0000 </r>
       <r>    8.5233   -0.0000 </r>
       <r>    8.5394   -0.0000 </r>
       <r>    8.6134   -0.0000 </r>
       <r>    8.7327   -0.0000 </r>
       <r>    8.7903   -0.0000 </r>
       <r>    8.8595   -0.0000 </r>
       <r>    8.8955   -0.0000 </r>
       <r>    8.9823   -0.0000 </r>
       <r>    9.0525   -0.0000 </r>
       <r>    9.1686   -0.0000 </r>
       <r>    9.2318   -0.0000 </r>
      </set>
      <set comment="kpoint 4">
       <r>  -47.3171    1.0000 </r>
       <r>  -47.3076    1.0000 </r>
       <r>  -47.2735    1.0000 </r>
       <r>  -47.2167    1.0000 </r>
       <r>  -47.1785    1.0000 </r>
       <r>  -47.1147    1.0000 </r>
       <r>  -23.8479    1.0000 </r>
       <r>  -23.7805    1.0000 </r>
       <r>  -23.7180    1.0000 </r>
       <r>  -23.6150    1.0000 </r>
       <r>  -23.5063    1.0000 </r>
       <r>  -23.4889    1.0000 </r>
       <r>  -23.4755    1.0000 </r>
       <r>  -23.4454    1.0000 </r>
       <r>  -23.4277    1.0000 </r>
       <r>  -23.3983    1.0000 </r>
       <r>  -23.3894    1.0000 </r>
       <r>  -23.3743    1.0000 </r>
       <r>  -23.3009    1.0000 </r>
       <r>  -23.2739    1.0000 </r>
       <r>  -23.1754    1.0000 </r>
       <r>  -23.1428    1.0000 </r>
       <r>  -23.0772    1.0000 </r>
       <r>  -22.9399    1.0000 </r>
       <r>   -0.4436    1.0000 </r>
       <r>    1.2365    1.0000 </r>
       <r>    1.5201    1.0000 </r>
       <r>    1.8668    1.0000 </r>
       <r>    2.0744    1.0000 </r>
       <r>    2.3242    1.0000 </r>
       <r>    2.4036    1.0000 </r>
       <r>    2.5253    1.0000 </r>
       <r>    2.6728    1.0000 </r>
       <r>    2.7062    1.0000 </r>
       <r>    2.7644    1.0000 </r>
       <r>    2.8109    1.0000 </r>
       <r>    2.8932    1.0000 </r>
       <r>    3.0005    1.0000 </r>
       <r>    3.0813    1.0000 </r>
       <r>    3.1700    1.0000 </r>
       <r>    3.1984    1.0000 </r>
       <r>    3.2787    1.0000 </r>
       <r>    3.3002    1.0000 </r>
       <r>    3.3930    1.0000 </r>
       <r>    3.4870    1.0000 </r>
       <r>    3.5213    1.0000 </r>
       <r>    3.6042    1.0000 </r>
       <r>    3.6434    1.0000 </r>
       <r>    3.6666    1.0000 </r>
       <r>    3.7020    1.0000 </r>
       <r>    3.7984    1.0000 </r>
       <r>    3.8334    1.0000 </r>
       <r>    3.9275    1.0000 </r>
       <r>    3.9519    1.0000 </r>
       <r>    4.1349    1.0000 </r>
       <r>    4.2844    1.0000 </r>
       <r>    4.4922    1.0000 </r>
       <r>    4.5330    1.0000 </r>
       <r>    4.6258    1.0000 </r>
       <r>    4.6519    1.0000 </r>
       <r>    4.6820    1.0000 </r>
       <r>    4.7248    1.0000 </r>
       <r>    4.7885    1.0000 </r>
       <r>    4.8556    1.0000 </r>
       <r>    4.8818    1.0000 </r>
       <r>    4.9704    1.0000 </r>
       <r>    4.9978    1.0000 </r>
       <r>    5.0253    1.0000 </r>
       <r>    5.0666    1.0000 </r>
       <r>    5.0917    1.0000 </r>
       <r>    5.1616    1.0000 </r>
       <r>    5.2082    1.0000 </r>
       <r>    5.2691    1.0000 </r>
       <r>    5.3084    1.0000 </r>
       <r>    5.3483    1.0000 </r>
       <r>    5.4710    1.0000 </r>
       <r>    5.5479    1.0000 </r>
       <r>    5.6229    1.0000 </r>
       <r>    5.7017    1.0000 </r>
       <r>    5.7347    1.0000 </r>
       <r>    5.8897    1.0000 </r>
       <r>    6.0176    1.0000 </r>
       <r>    6.0975    1.0001 </r>
       <r>    6.1351    1.0002 </r>
       <r>    6.1473    1.0002 </r>
       <r>    6.1847    1.0006 </r>
       <r>    6.2496    1.0026 </r>
       <r>    6.2787    1.0046 </r>
       <r>    6.3428    1.0128 </r>
       <r>    6.4189    1.0293 </r>
       <r>    6.4583    1.0352 </r>
       <r>    6.5121    1.0247 </r>
       <r>    6.6866    0.6037 </r>
       <r>    6.7353    0.3997 </r>
       <r>    6.7502    0.3392 </r>
       <r>    6.7751    0.2449 </r>
       <r>    6.8363    0.0692 </r>
       <r>    6.8825   -0.0030 </r>
       <r>    6.9041   -0.0209 </r>
       <r>    6.9822   -0.0333 </r>
       <r>    7.0161   -0.0266 </r>
       <r>    7.0629   -0.0161 </r>
       <r>    7.0827   -0.0123 </r>
       <r>    7.1209   -0.0068 </r>
       <r>    7.1786   -0.0023 </r>
       <r>    7.2035   -0.0014 </r>
       <r>    7.2944   -0.0001 </r>
       <r>    7.3177   -0.0001 </r>
       <r>    7.3488   -0.0000 </r>
       <r>    7.4483   -0.0000 </r>
       <r>    7.4834   -0.0000 </r>
       <r>    7.5564   -0.0000 </r>
       <r>    7.5835   -0.0000 </r>
       <r>    7.9124   -0.0000 </r>
       <r>    8.0162   -0.0000 </r>
       <r>    8.0857   -0.0000 </r>
       <r>    8.1351   -0.0000 </r>
       <r>    8.2014   -0.0000 </r>
       <r>    8.2668   -0.0000 </r>
       <r>    8.3024   -0.0000 </r>
       <r>    8.3328   -0.0000 </r>
       <r>    8.3963   -0.0000 </r>
       <r>    8.4783   -0.0000 </r>
       <r>    8.4957   -0.0000 </r>
       <r>    8.5577   -0.0000 </r>
       <r>    8.6805   -0.0000 </r>
       <r>    8.7432   -0.0000 </r>
       <r>    8.9468   -0.0000 </r>
      </set>
      <set comment="kpoint 5">
       <r>  -47.3170    1.0000 </r>
       <r>  -47.3075    1.0000 </r>
       <r>  -47.2735    1.0000 </r>
       <r>  -47.2167    1.0000 </r>
       <r>  -47.1786    1.0000 </r>
       <r>  -47.1147    1.0000 </r>
       <r>  -23.8482    1.0000 </r>
       <r>  -23.7809    1.0000 </r>
       <r>  -23.7197    1.0000 </r>
       <r>  -23.6149    1.0000 </r>
       <r>  -23.5067    1.0000 </r>
       <r>  -23.4895    1.0000 </r>
       <r>  -23.4763    1.0000 </r>
       <r>  -23.4458    1.0000 </r>
       <r>  -23.4278    1.0000 </r>
       <r>  -23.3982    1.0000 </r>
       <r>  -23.3892    1.0000 </r>
       <r>  -23.3742    1.0000 </r>
       <r>  -23.3010    1.0000 </r>
       <r>  -23.2740    1.0000 </r>
       <r>  -23.1747    1.0000 </r>
       <r>  -23.1429    1.0000 </r>
       <r>  -23.0772    1.0000 </r>
       <r>  -22.9397    1.0000 </r>
       <r>   -0.2622    1.0000 </r>
       <r>    1.2300    1.0000 </r>
       <r>    1.6637    1.0000 </r>
       <r>    2.1199    1.0000 </r>
       <r>    2.3407    1.0000 </r>
       <r>    2.4118    1.0000 </r>
       <r>    2.4852    1.0000 </r>
       <r>    2.5768    1.0000 </r>
       <r>    2.6864    1.0000 </r>
       <r>    2.7583    1.0000 </r>
       <r>    2.8498    1.0000 </r>
       <r>    2.9216    1.0000 </r>
       <r>    2.9779    1.0000 </r>
       <r>    3.0207    1.0000 </r>
       <r>    3.1023    1.0000 </r>
       <r>    3.1244    1.0000 </r>
       <r>    3.2141    1.0000 </r>
       <r>    3.2738    1.0000 </r>
       <r>    3.3438    1.0000 </r>
       <r>    3.4254    1.0000 </r>
       <r>    3.4855    1.0000 </r>
       <r>    3.5593    1.0000 </r>
       <r>    3.6138    1.0000 </r>
       <r>    3.6434    1.0000 </r>
       <r>    3.7408    1.0000 </r>
       <r>    3.7921    1.0000 </r>
       <r>    3.8940    1.0000 </r>
       <r>    3.9624    1.0000 </r>
       <r>    4.0121    1.0000 </r>
       <r>    4.0994    1.0000 </r>
       <r>    4.3100    1.0000 </r>
       <r>    4.3458    1.0000 </r>
       <r>    4.4664    1.0000 </r>
       <r>    4.5512    1.0000 </r>
       <r>    4.5980    1.0000 </r>
       <r>    4.6848    1.0000 </r>
       <r>    4.7170    1.0000 </r>
       <r>    4.7547    1.0000 </r>
       <r>    4.7783    1.0000 </r>
       <r>    4.8291    1.0000 </r>
       <r>    4.8612    1.0000 </r>
       <r>    4.9316    1.0000 </r>
       <r>    4.9801    1.0000 </r>
       <r>    4.9977    1.0000 </r>
       <r>    5.0240    1.0000 </r>
       <r>    5.1059    1.0000 </r>
       <r>    5.1885    1.0000 </r>
       <r>    5.2068    1.0000 </r>
       <r>    5.2269    1.0000 </r>
       <r>    5.3348    1.0000 </r>
       <r>    5.3733    1.0000 </r>
       <r>    5.4501    1.0000 </r>
       <r>    5.5111    1.0000 </r>
       <r>    5.6161    1.0000 </r>
       <r>    5.6547    1.0000 </r>
       <r>    5.6792    1.0000 </r>
       <r>    5.7321    1.0000 </r>
       <r>    5.7870    1.0000 </r>
       <r>    5.8552    1.0000 </r>
       <r>    5.9431    1.0000 </r>
       <r>    6.0000    1.0000 </r>
       <r>    6.0467    1.0000 </r>
       <r>    6.0861    1.0000 </r>
       <r>    6.1417    1.0002 </r>
       <r>    6.2292    1.0017 </r>
       <r>    6.2573    1.0030 </r>
       <r>    6.3254    1.0100 </r>
       <r>    6.3529    1.0147 </r>
       <r>    6.3702    1.0183 </r>
       <r>    6.4307    1.0317 </r>
       <r>    6.4764    1.0350 </r>
       <r>    6.5350    1.0081 </r>
       <r>    6.5701    0.9620 </r>
       <r>    6.6084    0.8782 </r>
       <r>    6.6360    0.7951 </r>
       <r>    6.6741    0.6547 </r>
       <r>    6.7255    0.4405 </r>
       <r>    6.7785    0.2327 </r>
       <r>    6.8734    0.0074 </r>
       <r>    6.8976   -0.0164 </r>
       <r>    6.9743   -0.0344 </r>
       <r>    7.0256   -0.0244 </r>
       <r>    7.1156   -0.0075 </r>
       <r>    7.2044   -0.0014 </r>
       <r>    7.2836   -0.0002 </r>
       <r>    7.3843   -0.0000 </r>
       <r>    7.4092   -0.0000 </r>
       <r>    7.5801   -0.0000 </r>
       <r>    7.7365   -0.0000 </r>
       <r>    7.7505   -0.0000 </r>
       <r>    7.9860   -0.0000 </r>
       <r>    8.1076   -0.0000 </r>
       <r>    8.1690   -0.0000 </r>
       <r>    8.2822   -0.0000 </r>
       <r>    8.3414   -0.0000 </r>
       <r>    8.3901   -0.0000 </r>
       <r>    8.4087   -0.0000 </r>
       <r>    8.4477   -0.0000 </r>
       <r>    8.5950   -0.0000 </r>
       <r>    8.6510   -0.0000 </r>
       <r>    8.7941   -0.0000 </r>
       <r>    8.8744   -0.0000 </r>
       <r>    9.0290   -0.0000 </r>
       <r>    9.0395   -0.0000 </r>
      </set>
      <set comment="kpoint 6">
       <r>  -47.3166    1.0000 </r>
       <r>  -47.3077    1.0000 </r>
       <r>  -47.2735    1.0000 </r>
       <r>  -47.2167    1.0000 </r>
       <r>  -47.1787    1.0000 </r>
       <r>  -47.1147    1.0000 </r>
       <r>  -23.8497    1.0000 </r>
       <r>  -23.7812    1.0000 </r>
       <r>  -23.7215    1.0000 </r>
       <r>  -23.6151    1.0000 </r>
       <r>  -23.5072    1.0000 </r>
       <r>  -23.4905    1.0000 </r>
       <r>  -23.4775    1.0000 </r>
       <r>  -23.4467    1.0000 </r>
       <r>  -23.4278    1.0000 </r>
       <r>  -23.3979    1.0000 </r>
       <r>  -23.3890    1.0000 </r>
       <r>  -23.3739    1.0000 </r>
       <r>  -23.3011    1.0000 </r>
       <r>  -23.2738    1.0000 </r>
       <r>  -23.1732    1.0000 </r>
       <r>  -23.1436    1.0000 </r>
       <r>  -23.0770    1.0000 </r>
       <r>  -22.9395    1.0000 </r>
       <r>    0.3317    1.0000 </r>
       <r>    1.2856    1.0000 </r>
       <r>    1.4810    1.0000 </r>
       <r>    2.0728    1.0000 </r>
       <r>    2.2230    1.0000 </r>
       <r>    2.3562    1.0000 </r>
       <r>    2.6262    1.0000 </r>
       <r>    2.7299    1.0000 </r>
       <r>    2.8375    1.0000 </r>
       <r>    2.8955    1.0000 </r>
       <r>    3.0101    1.0000 </r>
       <r>    3.2146    1.0000 </r>
       <r>    3.2613    1.0000 </r>
       <r>    3.3118    1.0000 </r>
       <r>    3.3650    1.0000 </r>
       <r>    3.4148    1.0000 </r>
       <r>    3.4465    1.0000 </r>
       <r>    3.5035    1.0000 </r>
       <r>    3.5273    1.0000 </r>
       <r>    3.5801    1.0000 </r>
       <r>    3.6754    1.0000 </r>
       <r>    3.7022    1.0000 </r>
       <r>    3.7619    1.0000 </r>
       <r>    3.8186    1.0000 </r>
       <r>    3.9123    1.0000 </r>
       <r>    3.9409    1.0000 </r>
       <r>    4.0196    1.0000 </r>
       <r>    4.0560    1.0000 </r>
       <r>    4.0805    1.0000 </r>
       <r>    4.1486    1.0000 </r>
       <r>    4.2189    1.0000 </r>
       <r>    4.3148    1.0000 </r>
       <r>    4.4362    1.0000 </r>
       <r>    4.5462    1.0000 </r>
       <r>    4.6092    1.0000 </r>
       <r>    4.6751    1.0000 </r>
       <r>    4.7147    1.0000 </r>
       <r>    4.7672    1.0000 </r>
       <r>    4.8176    1.0000 </r>
       <r>    4.8606    1.0000 </r>
       <r>    4.9068    1.0000 </r>
       <r>    4.9427    1.0000 </r>
       <r>    5.0009    1.0000 </r>
       <r>    5.0190    1.0000 </r>
       <r>    5.0754    1.0000 </r>
       <r>    5.0868    1.0000 </r>
       <r>    5.1443    1.0000 </r>
       <r>    5.1962    1.0000 </r>
       <r>    5.2154    1.0000 </r>
       <r>    5.3026    1.0000 </r>
       <r>    5.3247    1.0000 </r>
       <r>    5.3775    1.0000 </r>
       <r>    5.3941    1.0000 </r>
       <r>    5.4273    1.0000 </r>
       <r>    5.4872    1.0000 </r>
       <r>    5.5564    1.0000 </r>
       <r>    5.5700    1.0000 </r>
       <r>    5.6052    1.0000 </r>
       <r>    5.6683    1.0000 </r>
       <r>    5.6936    1.0000 </r>
       <r>    5.7132    1.0000 </r>
       <r>    5.7606    1.0000 </r>
       <r>    5.7981    1.0000 </r>
       <r>    5.8742    1.0000 </r>
       <r>    5.9155    1.0000 </r>
       <r>    5.9415    1.0000 </r>
       <r>    5.9887    1.0000 </r>
       <r>    6.0209    1.0000 </r>
       <r>    6.0646    1.0000 </r>
       <r>    6.1022    1.0001 </r>
       <r>    6.1228    1.0001 </r>
       <r>    6.1656    1.0004 </r>
       <r>    6.2388    1.0021 </r>
       <r>    6.2572    1.0030 </r>
       <r>    6.2996    1.0066 </r>
       <r>    6.3263    1.0101 </r>
       <r>    6.3869    1.0220 </r>
       <r>    6.4360    1.0326 </r>
       <r>    6.4788    1.0348 </r>
       <r>    6.5377    1.0055 </r>
       <r>    6.6170    0.8541 </r>
       <r>    6.6798    0.6319 </r>
       <r>    6.7573    0.3110 </r>
       <r>    6.7946    0.1795 </r>
       <r>    6.8744    0.0061 </r>
       <r>    7.0590   -0.0169 </r>
       <r>    7.1858   -0.0020 </r>
       <r>    7.3553   -0.0000 </r>
       <r>    7.6515   -0.0000 </r>
       <r>    7.9165   -0.0000 </r>
       <r>    8.1515   -0.0000 </r>
       <r>    8.2755   -0.0000 </r>
       <r>    8.4003   -0.0000 </r>
       <r>    8.4659   -0.0000 </r>
       <r>    8.4997   -0.0000 </r>
       <r>    8.6546   -0.0000 </r>
       <r>    8.7172   -0.0000 </r>
       <r>    8.7376   -0.0000 </r>
       <r>    8.8155   -0.0000 </r>
       <r>    8.8640   -0.0000 </r>
       <r>    8.9280   -0.0000 </r>
       <r>    8.9731   -0.0000 </r>
       <r>    9.0259   -0.0000 </r>
       <r>    9.1494   -0.0000 </r>
      </set>
      <set comment="kpoint 7">
       <r>  -47.3165    1.0000 </r>
       <r>  -47.3078    1.0000 </r>
       <r>  -47.2735    1.0000 </r>
       <r>  -47.2167    1.0000 </r>
       <r>  -47.1786    1.0000 </r>
       <r>  -47.1147    1.0000 </r>
       <r>  -23.8502    1.0000 </r>
       <r>  -23.7809    1.0000 </r>
       <r>  -23.7210    1.0000 </r>
       <r>  -23.6151    1.0000 </r>
       <r>  -23.5071    1.0000 </r>
       <r>  -23.4906    1.0000 </r>
       <r>  -23.4775    1.0000 </r>
       <r>  -23.4467    1.0000 </r>
       <r>  -23.4276    1.0000 </r>
       <r>  -23.3978    1.0000 </r>
       <r>  -23.3890    1.0000 </r>
       <r>  -23.3741    1.0000 </r>
       <r>  -23.3012    1.0000 </r>
       <r>  -23.2736    1.0000 </r>
       <r>  -23.1730    1.0000 </r>
       <r>  -23.1440    1.0000 </r>
       <r>  -23.0770    1.0000 </r>
       <r>  -22.9396    1.0000 </r>
       <r>    0.4952    1.0000 </r>
       <r>    1.2397    1.0000 </r>
       <r>    1.3963    1.0000 </r>
       <r>    1.8640    1.0000 </r>
       <r>    2.0241    1.0000 </r>
       <r>    2.4506    1.0000 </r>
       <r>    2.5250    1.0000 </r>
       <r>    2.6783    1.0000 </r>
       <r>    2.8544    1.0000 </r>
       <r>    2.9167    1.0000 </r>
       <r>    3.0618    1.0000 </r>
       <r>    3.1432    1.0000 </r>
       <r>    3.2157    1.0000 </r>
       <r>    3.2571    1.0000 </r>
       <r>    3.3599    1.0000 </r>
       <r>    3.3854    1.0000 </r>
       <r>    3.4738    1.0000 </r>
       <r>    3.5216    1.0000 </r>
       <r>    3.6435    1.0000 </r>
       <r>    3.6978    1.0000 </r>
       <r>    3.7901    1.0000 </r>
       <r>    3.8011    1.0000 </r>
       <r>    3.8666    1.0000 </r>
       <r>    3.8793    1.0000 </r>
       <r>    3.9586    1.0000 </r>
       <r>    4.0018    1.0000 </r>
       <r>    4.0598    1.0000 </r>
       <r>    4.1281    1.0000 </r>
       <r>    4.1894    1.0000 </r>
       <r>    4.2659    1.0000 </r>
       <r>    4.3173    1.0000 </r>
       <r>    4.3725    1.0000 </r>
       <r>    4.4784    1.0000 </r>
       <r>    4.5464    1.0000 </r>
       <r>    4.6268    1.0000 </r>
       <r>    4.6623    1.0000 </r>
       <r>    4.7128    1.0000 </r>
       <r>    4.7463    1.0000 </r>
       <r>    4.7919    1.0000 </r>
       <r>    4.8406    1.0000 </r>
       <r>    4.8542    1.0000 </r>
       <r>    4.8871    1.0000 </r>
       <r>    4.9064    1.0000 </r>
       <r>    4.9595    1.0000 </r>
       <r>    4.9977    1.0000 </r>
       <r>    5.0294    1.0000 </r>
       <r>    5.0585    1.0000 </r>
       <r>    5.1015    1.0000 </r>
       <r>    5.1443    1.0000 </r>
       <r>    5.2207    1.0000 </r>
       <r>    5.2578    1.0000 </r>
       <r>    5.3005    1.0000 </r>
       <r>    5.3596    1.0000 </r>
       <r>    5.4424    1.0000 </r>
       <r>    5.4771    1.0000 </r>
       <r>    5.5270    1.0000 </r>
       <r>    5.5389    1.0000 </r>
       <r>    5.5932    1.0000 </r>
       <r>    5.6466    1.0000 </r>
       <r>    5.6993    1.0000 </r>
       <r>    5.7459    1.0000 </r>
       <r>    5.7806    1.0000 </r>
       <r>    5.8180    1.0000 </r>
       <r>    5.8804    1.0000 </r>
       <r>    5.9365    1.0000 </r>
       <r>    5.9720    1.0000 </r>
       <r>    6.0139    1.0000 </r>
       <r>    6.0483    1.0000 </r>
       <r>    6.1047    1.0001 </r>
       <r>    6.1319    1.0002 </r>
       <r>    6.1586    1.0003 </r>
       <r>    6.2238    1.0015 </r>
       <r>    6.2719    1.0040 </r>
       <r>    6.3183    1.0089 </r>
       <r>    6.3727    1.0188 </r>
       <r>    6.4128    1.0280 </r>
       <r>    6.4306    1.0316 </r>
       <r>    6.4800    1.0347 </r>
       <r>    6.5195    1.0204 </r>
       <r>    6.5693    0.9634 </r>
       <r>    6.6328    0.8058 </r>
       <r>    6.6769    0.6435 </r>
       <r>    6.7289    0.4262 </r>
       <r>    6.7578    0.3094 </r>
       <r>    6.7971    0.1714 </r>
       <r>    6.8620    0.0230 </r>
       <r>    7.0212   -0.0254 </r>
       <r>    7.0950   -0.0103 </r>
       <r>    7.6204   -0.0000 </r>
       <r>    8.0284   -0.0000 </r>
       <r>    8.1729   -0.0000 </r>
       <r>    8.3875   -0.0000 </r>
       <r>    8.4099   -0.0000 </r>
       <r>    8.5452   -0.0000 </r>
       <r>    8.5941   -0.0000 </r>
       <r>    8.6425   -0.0000 </r>
       <r>    8.7527   -0.0000 </r>
       <r>    8.7979   -0.0000 </r>
       <r>    8.8577   -0.0000 </r>
       <r>    8.8893   -0.0000 </r>
       <r>    8.9378   -0.0000 </r>
       <r>    8.9775   -0.0000 </r>
       <r>    9.1238   -0.0000 </r>
       <r>    9.2400   -0.0000 </r>
      </set>
      <set comment="kpoint 8">
       <r>  -47.3168    1.0000 </r>
       <r>  -47.3078    1.0000 </r>
       <r>  -47.2735    1.0000 </r>
       <r>  -47.2167    1.0000 </r>
       <r>  -47.1785    1.0000 </r>
       <r>  -47.1147    1.0000 </r>
       <r>  -23.8491    1.0000 </r>
       <r>  -23.7804    1.0000 </r>
       <r>  -23.7189    1.0000 </r>
       <r>  -23.6151    1.0000 </r>
       <r>  -23.5066    1.0000 </r>
       <r>  -23.4895    1.0000 </r>
       <r>  -23.4762    1.0000 </r>
       <r>  -23.4461    1.0000 </r>
       <r>  -23.4275    1.0000 </r>
       <r>  -23.3980    1.0000 </r>
       <r>  -23.3893    1.0000 </r>
       <r>  -23.3742    1.0000 </r>
       <r>  -23.3010    1.0000 </r>
       <r>  -23.2737    1.0000 </r>
       <r>  -23.1743    1.0000 </r>
       <r>  -23.1435    1.0000 </r>
       <r>  -23.0771    1.0000 </r>
       <r>  -22.9398    1.0000 </r>
       <r>   -0.1668    1.0000 </r>
       <r>    1.2547    1.0000 </r>
       <r>    1.6136    1.0000 </r>
       <r>    1.8240    1.0000 </r>
       <r>    2.1094    1.0000 </r>
       <r>    2.3652    1.0000 </r>
       <r>    2.4972    1.0000 </r>
       <r>    2.5823    1.0000 </r>
       <r>    2.6784    1.0000 </r>
       <r>    2.7866    1.0000 </r>
       <r>    2.8111    1.0000 </r>
       <r>    2.8873    1.0000 </r>
       <r>    2.9391    1.0000 </r>
       <r>    2.9583    1.0000 </r>
       <r>    3.0381    1.0000 </r>
       <r>    3.1522    1.0000 </r>
       <r>    3.2929    1.0000 </r>
       <r>    3.3317    1.0000 </r>
       <r>    3.4273    1.0000 </r>
       <r>    3.4584    1.0000 </r>
       <r>    3.6180    1.0000 </r>
       <r>    3.6956    1.0000 </r>
       <r>    3.7306    1.0000 </r>
       <r>    3.8099    1.0000 </r>
       <r>    3.8555    1.0000 </r>
       <r>    3.8988    1.0000 </r>
       <r>    3.9716    1.0000 </r>
       <r>    3.9894    1.0000 </r>
       <r>    4.0676    1.0000 </r>
       <r>    4.1508    1.0000 </r>
       <r>    4.2202    1.0000 </r>
       <r>    4.3159    1.0000 </r>
       <r>    4.5393    1.0000 </r>
       <r>    4.5739    1.0000 </r>
       <r>    4.6151    1.0000 </r>
       <r>    4.6560    1.0000 </r>
       <r>    4.6612    1.0000 </r>
       <r>    4.7369    1.0000 </r>
       <r>    4.7794    1.0000 </r>
       <r>    4.7985    1.0000 </r>
       <r>    4.8483    1.0000 </r>
       <r>    4.9087    1.0000 </r>
       <r>    4.9409    1.0000 </r>
       <r>    4.9654    1.0000 </r>
       <r>    5.0209    1.0000 </r>
       <r>    5.0672    1.0000 </r>
       <r>    5.0844    1.0000 </r>
       <r>    5.1482    1.0000 </r>
       <r>    5.1685    1.0000 </r>
       <r>    5.2331    1.0000 </r>
       <r>    5.3669    1.0000 </r>
       <r>    5.4829    1.0000 </r>
       <r>    5.4936    1.0000 </r>
       <r>    5.6111    1.0000 </r>
       <r>    5.6853    1.0000 </r>
       <r>    5.8095    1.0000 </r>
       <r>    5.8462    1.0000 </r>
       <r>    5.9032    1.0000 </r>
       <r>    5.9214    1.0000 </r>
       <r>    5.9531    1.0000 </r>
       <r>    6.0066    1.0000 </r>
       <r>    6.0475    1.0000 </r>
       <r>    6.0864    1.0000 </r>
       <r>    6.1546    1.0003 </r>
       <r>    6.1963    1.0008 </r>
       <r>    6.2180    1.0013 </r>
       <r>    6.2561    1.0030 </r>
       <r>    6.3024    1.0069 </r>
       <r>    6.3339    1.0113 </r>
       <r>    6.3721    1.0187 </r>
       <r>    6.4070    1.0267 </r>
       <r>    6.4212    1.0298 </r>
       <r>    6.4683    1.0354 </r>
       <r>    6.5645    0.9712 </r>
       <r>    6.6256    0.8284 </r>
       <r>    6.7137    0.4903 </r>
       <r>    6.7598    0.3015 </r>
       <r>    6.8063    0.1442 </r>
       <r>    6.8538    0.0360 </r>
       <r>    6.9065   -0.0224 </r>
       <r>    6.9683   -0.0349 </r>
       <r>    6.9887   -0.0322 </r>
       <r>    7.0398   -0.0211 </r>
       <r>    7.1155   -0.0075 </r>
       <r>    7.2633   -0.0003 </r>
       <r>    7.4213   -0.0000 </r>
       <r>    7.4898   -0.0000 </r>
       <r>    7.6251   -0.0000 </r>
       <r>    7.8017   -0.0000 </r>
       <r>    7.8434   -0.0000 </r>
       <r>    8.0036   -0.0000 </r>
       <r>    8.0938   -0.0000 </r>
       <r>    8.2007   -0.0000 </r>
       <r>    8.2511   -0.0000 </r>
       <r>    8.3771   -0.0000 </r>
       <r>    8.5593   -0.0000 </r>
       <r>    8.5925   -0.0000 </r>
       <r>    8.6415   -0.0000 </r>
       <r>    8.7197   -0.0000 </r>
       <r>    8.7574   -0.0000 </r>
       <r>    8.8198   -0.0000 </r>
       <r>    8.8387   -0.0000 </r>
       <r>    8.8820   -0.0000 </r>
       <r>    8.9548   -0.0000 </r>
      </set>
      <set comment="kpoint 9">
       <r>  -47.3166    1.0000 </r>
       <r>  -47.3080    1.0000 </r>
       <r>  -47.2735    1.0000 </r>
       <r>  -47.2167    1.0000 </r>
       <r>  -47.1784    1.0000 </r>
       <r>  -47.1147    1.0000 </r>
       <r>  -23.8480    1.0000 </r>
       <r>  -23.7796    1.0000 </r>
       <r>  -23.7170    1.0000 </r>
       <r>  -23.6173    1.0000 </r>
       <r>  -23.5062    1.0000 </r>
       <r>  -23.4886    1.0000 </r>
       <r>  -23.4758    1.0000 </r>
       <r>  -23.4455    1.0000 </r>
       <r>  -23.4275    1.0000 </r>
       <r>  -23.3982    1.0000 </r>
       <r>  -23.3895    1.0000 </r>
       <r>  -23.3739    1.0000 </r>
       <r>  -23.3010    1.0000 </r>
       <r>  -23.2737    1.0000 </r>
       <r>  -23.1740    1.0000 </r>
       <r>  -23.1435    1.0000 </r>
       <r>  -23.0771    1.0000 </r>
       <r>  -22.9405    1.0000 </r>
       <r>   -0.0808    1.0000 </r>
       <r>    0.6233    1.0000 </r>
       <r>    1.5432    1.0000 </r>
       <r>    1.7651    1.0000 </r>
       <r>    2.1096    1.0000 </r>
       <r>    2.2385    1.0000 </r>
       <r>    2.4201    1.0000 </r>
       <r>    2.4956    1.0000 </r>
       <r>    2.5778    1.0000 </r>
       <r>    2.6617    1.0000 </r>
       <r>    2.7712    1.0000 </r>
       <r>    2.8568    1.0000 </r>
       <r>    2.9495    1.0000 </r>
       <r>    3.0668    1.0000 </r>
       <r>    3.1094    1.0000 </r>
       <r>    3.1764    1.0000 </r>
       <r>    3.2451    1.0000 </r>
       <r>    3.2849    1.0000 </r>
       <r>    3.3391    1.0000 </r>
       <r>    3.4109    1.0000 </r>
       <r>    3.4705    1.0000 </r>
       <r>    3.5370    1.0000 </r>
       <r>    3.5999    1.0000 </r>
       <r>    3.6255    1.0000 </r>
       <r>    3.7288    1.0000 </r>
       <r>    3.7690    1.0000 </r>
       <r>    3.8270    1.0000 </r>
       <r>    3.8480    1.0000 </r>
       <r>    3.9372    1.0000 </r>
       <r>    4.0376    1.0000 </r>
       <r>    4.2777    1.0000 </r>
       <r>    4.3851    1.0000 </r>
       <r>    4.4639    1.0000 </r>
       <r>    4.5037    1.0000 </r>
       <r>    4.5859    1.0000 </r>
       <r>    4.6591    1.0000 </r>
       <r>    4.6919    1.0000 </r>
[...]
       <r>    5.1618    1.0000 </r>
       <r>    5.2163    1.0000 </r>
       <r>    5.2443    1.0000 </r>
       <r>    5.2623    1.0000 </r>
       <r>    5.2977    1.0000 </r>
       <r>    5.3259    1.0000 </r>
       <r>    5.4102    1.0000 </r>
       <r>    5.4496    1.0000 </r>
       <r>    5.5078    1.0000 </r>
       <r>    5.5746    1.0000 </r>
       <r>    5.6387    1.0000 </r>
       <r>    5.7289    1.0000 </r>
       <r>    5.7661    1.0000 </r>
       <r>    5.7972    1.0000 </r>
       <r>    5.8577    1.0000 </r>
       <r>    5.8789    1.0000 </r>
       <r>    5.9342    1.0000 </r>
       <r>    5.9524    1.0000 </r>
       <r>    6.0155    1.0000 </r>
       <r>    6.0630    1.0000 </r>
       <r>    6.1000    1.0001 </r>
       <r>    6.1557    1.0003 </r>
       <r>    6.1837    1.0006 </r>
       <r>    6.2396    1.0021 </r>
       <r>    6.2718    1.0040 </r>
       <r>    6.3018    1.0068 </r>
       <r>    6.3514    1.0144 </r>
       <r>    6.4023    1.0256 </r>
       <r>    6.4799    1.0347 </r>
       <r>    6.5364    1.0068 </r>
       <r>    6.5599    0.9784 </r>
       <r>    6.6175    0.8527 </r>
       <r>    6.6759    0.6473 </r>
       <r>    6.7691    0.2667 </r>
       <r>    6.8026    0.1550 </r>
       <r>    6.8244    0.0962 </r>
       <r>    6.9028   -0.0201 </r>
       <r>    7.0662   -0.0154 </r>
       <r>    7.1229   -0.0066 </r>
       <r>    7.2026   -0.0014 </r>
       <r>    7.4543   -0.0000 </r>
       <r>    7.5095   -0.0000 </r>
       <r>    7.6386   -0.0000 </r>
       <r>    7.8071   -0.0000 </r>
       <r>    7.8764   -0.0000 </r>
       <r>    7.9562   -0.0000 </r>
       <r>    8.0314   -0.0000 </r>
       <r>    8.0978   -0.0000 </r>
       <r>    8.1973   -0.0000 </r>
       <r>    8.2084   -0.0000 </r>
       <r>    8.3009   -0.0000 </r>
       <r>    8.3624   -0.0000 </r>
       <r>    8.4479   -0.0000 </r>
       <r>    8.5263   -0.0000 </r>
       <r>    8.6618   -0.0000 </r>
       <r>    8.7175   -0.0000 </r>
       <r>    8.7512   -0.0000 </r>
       <r>    8.7988   -0.0000 </r>
       <r>    8.8753   -0.0000 </r>
       <r>    8.9435   -0.0000 </r>
      </set>
     </set>
    </set>
   </array>
  </eigenvalues>
  <separator name="orbital magnetization" >
   <v name="MAGDIPOLOUT">      0.00000000      0.00000000      0.00000000</v>
  </separator>
  <dos>
   <i name="efermi">      6.71136021 </i>
   <total>
    <array>
     <dimension dim="1">gridpoints</dimension>
     <dimension dim="2">spin</dimension>
     <field>energy</field>
     <field>total</field>
     <field>integrated</field>
     <set>
      <set comment="spin 1">
       <r>   -50.1452     0.0000     0.0000 </r>
       <r>   -49.9378     0.0000     0.0000 </r>
       <r>   -49.7304     0.0000     0.0000 </r>
       <r>   -49.5231     0.0000     0.0000 </r>
       <r>   -49.3157     0.0000     0.0000 </r>
       <r>   -49.1083    -0.0000    -0.0000 </r>
       <r>   -48.9009    -0.0000    -0.0000 </r>
       <r>   -48.6935    -0.0000    -0.0000 </r>
       <r>   -48.4862    -0.0000    -0.0000 </r>
       <r>   -48.2788    -0.0000    -0.0000 </r>
       <r>   -48.0714    -0.0000    -0.0000 </r>
       <r>   -47.8640    -0.0080    -0.0017 </r>
       <r>   -47.6567    -0.4923    -0.1037 </r>
       <r>   -47.4493     0.4596    -0.0084 </r>
       <r>   -47.2419    27.9401     5.7857 </r>
       <r>   -47.0345    28.9109    11.7811 </r>
       <r>   -46.8272     1.6594    12.1252 </r>
       <r>   -46.6198    -0.5875    12.0034 </r>
       <r>   -46.4124    -0.0164    12.0000 </r>
       <r>   -46.2050    -0.0000    12.0000 </r>
       <r>   -45.9976    -0.0000    12.0000 </r>
       <r>   -45.7903    -0.0000    12.0000 </r>
       <r>   -45.5829     0.0000    12.0000 </r>
       <r>   -45.3755     0.0000    12.0000 </r>
       <r>   -45.1681     0.0000    12.0000 </r>
       <r>   -44.9608     0.0000    12.0000 </r>
       <r>   -44.7534     0.0000    12.0000 </r>
       <r>   -44.5460     0.0000    12.0000 </r>
       <r>   -44.3386     0.0000    12.0000 </r>
       <r>   -44.1313     0.0000    12.0000 </r>
       <r>   -43.9239     0.0000    12.0000 </r>
       <r>   -43.7165     0.0000    12.0000 </r>
       <r>   -43.5091     0.0000    12.0000 </r>
       <r>   -43.3017     0.0000    12.0000 </r>
       <r>   -43.0944     0.0000    12.0000 </r>
       <r>   -42.8870     0.0000    12.0000 </r>
       <r>   -42.6796     0.0000    12.0000 </r>
       <r>   -42.4722     0.0000    12.0000 </r>
       <r>   -42.2649     0.0000    12.0000 </r>
       <r>   -42.0575     0.0000    12.0000 </r>
       <r>   -41.8501     0.0000    12.0000 </r>
       <r>   -41.6427     0.0000    12.0000 </r>
       <r>   -41.4354     0.0000    12.0000 </r>
       <r>   -41.2280     0.0000    12.0000 </r>
       <r>   -41.0206     0.0000    12.0000 </r>
       <r>   -40.8132     0.0000    12.0000 </r>
       <r>   -40.6058     0.0000    12.0000 </r>
       <r>   -40.3985     0.0000    12.0000 </r>
       <r>   -40.1911     0.0000    12.0000 </r>
       <r>   -39.9837     0.0000    12.0000 </r>
       <r>   -39.7763     0.0000    12.0000 </r>
       <r>   -39.5690     0.0000    12.0000 </r>
       <r>   -39.3616     0.0000    12.0000 </r>
       <r>   -39.1542     0.0000    12.0000 </r>
       <r>   -38.9468     0.0000    12.0000 </r>
       <r>   -38.7395     0.0000    12.0000 </r>
       <r>   -38.5321     0.0000    12.0000 </r>
       <r>   -38.3247     0.0000    12.0000 </r>
       <r>   -38.1173     0.0000    12.0000 </r>
       <r>   -37.9099     0.0000    12.0000 </r>
       <r>   -37.7026     0.0000    12.0000 </r>
       <r>   -37.4952     0.0000    12.0000 </r>
       <r>   -37.2878     0.0000    12.0000 </r>
       <r>   -37.0804     0.0000    12.0000 </r>
       <r>   -36.8731     0.0000    12.0000 </r>
       <r>   -36.6657     0.0000    12.0000 </r>
       <r>   -36.4583     0.0000    12.0000 </r>
       <r>   -36.2509     0.0000    12.0000 </r>
       <r>   -36.0436     0.0000    12.0000 </r>
       <r>   -35.8362     0.0000    12.0000 </r>
       <r>   -35.6288     0.0000    12.0000 </r>
       <r>   -35.4214     0.0000    12.0000 </r>
       <r>   -35.2140     0.0000    12.0000 </r>
       <r>   -35.0067     0.0000    12.0000 </r>
       <r>   -34.7993     0.0000    12.0000 </r>
       <r>   -34.5919     0.0000    12.0000 </r>
       <r>   -34.3845     0.0000    12.0000 </r>
       <r>   -34.1772     0.0000    12.0000 </r>
       <r>   -33.9698     0.0000    12.0000 </r>
       <r>   -33.7624     0.0000    12.0000 </r>
       <r>   -33.5550     0.0000    12.0000 </r>
       <r>   -33.3477     0.0000    12.0000 </r>
       <r>   -33.1403     0.0000    12.0000 </r>
       <r>   -32.9329     0.0000    12.0000 </r>
       <r>   -32.7255     0.0000    12.0000 </r>
       <r>   -32.5181     0.0000    12.0000 </r>
       <r>   -32.3108     0.0000    12.0000 </r>
       <r>   -32.1034     0.0000    12.0000 </r>
       <r>   -31.8960     0.0000    12.0000 </r>
       <r>   -31.6886     0.0000    12.0000 </r>
       <r>   -31.4813     0.0000    12.0000 </r>
       <r>   -31.2739     0.0000    12.0000 </r>
       <r>   -31.0665     0.0000    12.0000 </r>
       <r>   -30.8591     0.0000    12.0000 </r>
       <r>   -30.6518     0.0000    12.0000 </r>
       <r>   -30.4444     0.0000    12.0000 </r>
       <r>   -30.2370     0.0000    12.0000 </r>
       <r>   -30.0296     0.0000    12.0000 </r>
       <r>   -29.8223     0.0000    12.0000 </r>
       <r>   -29.6149     0.0000    12.0000 </r>
       <r>   -29.4075     0.0000    12.0000 </r>
       <r>   -29.2001     0.0000    12.0000 </r>
       <r>   -28.9927     0.0000    12.0000 </r>
       <r>   -28.7854     0.0000    12.0000 </r>
       <r>   -28.5780     0.0000    12.0000 </r>
       <r>   -28.3706     0.0000    12.0000 </r>
       <r>   -28.1632     0.0000    12.0000 </r>
       <r>   -27.9559     0.0000    12.0000 </r>
       <r>   -27.7485     0.0000    12.0000 </r>
       <r>   -27.5411     0.0000    12.0000 </r>
       <r>   -27.3337     0.0000    12.0000 </r>
       <r>   -27.1264     0.0000    12.0000 </r>
       <r>   -26.9190     0.0000    12.0000 </r>
       <r>   -26.7116     0.0000    12.0000 </r>
       <r>   -26.5042     0.0000    12.0000 </r>
       <r>   -26.2968     0.0000    12.0000 </r>
       <r>   -26.0895     0.0000    12.0000 </r>
       <r>   -25.8821     0.0000    12.0000 </r>
       <r>   -25.6747     0.0000    12.0000 </r>
       <r>   -25.4673    -0.0000    12.0000 </r>
       <r>   -25.2600    -0.0000    12.0000 </r>
       <r>   -25.0526    -0.0000    12.0000 </r>
       <r>   -24.8452    -0.0000    12.0000 </r>
       <r>   -24.6378    -0.0000    12.0000 </r>
       <r>   -24.4305    -0.0017    11.9996 </r>
       <r>   -24.2231    -0.1606    11.9663 </r>
       <r>   -24.0157    -0.5320    11.8560 </r>
       <r>   -23.8083    11.0978    14.1574 </r>
       <r>   -23.6009    25.3373    19.4118 </r>
       <r>   -23.3936    56.4842    31.1253 </r>
       <r>   -23.1862    50.6392    41.6267 </r>
       <r>   -22.9788    24.0085    46.6055 </r>
       <r>   -22.7714     7.1896    48.0965 </r>
       <r>   -22.5641    -0.3428    48.0254 </r>
       <r>   -22.3567    -0.1209    48.0003 </r>
       <r>   -22.1493    -0.0015    48.0000 </r>
       <r>   -21.9419    -0.0000    48.0000 </r>
       <r>   -21.7346    -0.0000    48.0000 </r>
       <r>   -21.5272    -0.0000    48.0000 </r>
       <r>   -21.3198     0.0000    48.0000 </r>
       <r>   -21.1124     0.0000    48.0000 </r>
       <r>   -20.9050     0.0000    48.0000 </r>
       <r>   -20.6977     0.0000    48.0000 </r>
       <r>   -20.4903     0.0000    48.0000 </r>
       <r>   -20.2829     0.0000    48.0000 </r>
       <r>   -20.0755     0.0000    48.0000 </r>
       <r>   -19.8682     0.0000    48.0000 </r>
       <r>   -19.6608     0.0000    48.0000 </r>
       <r>   -19.4534     0.0000    48.0000 </r>
       <r>   -19.2460     0.0000    48.0000 </r>
       <r>   -19.0387     0.0000    48.0000 </r>
       <r>   -18.8313     0.0000    48.0000 </r>
       <r>   -18.6239     0.0000    48.0000 </r>
       <r>   -18.4165     0.0000    48.0000 </r>
       <r>   -18.2091     0.0000    48.0000 </r>
       <r>   -18.0018     0.0000    48.0000 </r>
       <r>   -17.7944     0.0000    48.0000 </r>
       <r>   -17.5870     0.0000    48.0000 </r>
       <r>   -17.3796     0.0000    48.0000 </r>
       <r>   -17.1723     0.0000    48.0000 </r>
       <r>   -16.9649     0.0000    48.0000 </r>
       <r>   -16.7575     0.0000    48.0000 </r>
       <r>   -16.5501     0.0000    48.0000 </r>
       <r>   -16.3428     0.0000    48.0000 </r>
       <r>   -16.1354     0.0000    48.0000 </r>
       <r>   -15.9280     0.0000    48.0000 </r>
       <r>   -15.7206     0.0000    48.0000 </r>
       <r>   -15.5132     0.0000    48.0000 </r>
       <r>   -15.3059     0.0000    48.0000 </r>
       <r>   -15.0985     0.0000    48.0000 </r>
       <r>   -14.8911     0.0000    48.0000 </r>
       <r>   -14.6837     0.0000    48.0000 </r>
       <r>   -14.4764     0.0000    48.0000 </r>
       <r>   -14.2690     0.0000    48.0000 </r>
       <r>   -14.0616     0.0000    48.0000 </r>
       <r>   -13.8542     0.0000    48.0000 </r>
       <r>   -13.6469     0.0000    48.0000 </r>
       <r>   -13.4395     0.0000    48.0000 </r>
       <r>   -13.2321     0.0000    48.0000 </r>
       <r>   -13.0247     0.0000    48.0000 </r>
       <r>   -12.8174     0.0000    48.0000 </r>
       <r>   -12.6100     0.0000    48.0000 </r>
       <r>   -12.4026     0.0000    48.0000 </r>
       <r>   -12.1952     0.0000    48.0000 </r>
       <r>   -11.9878     0.0000    48.0000 </r>
       <r>   -11.7805     0.0000    48.0000 </r>
       <r>   -11.5731     0.0000    48.0000 </r>
       <r>   -11.3657     0.0000    48.0000 </r>
       <r>   -11.1583     0.0000    48.0000 </r>
       <r>   -10.9510     0.0000    48.0000 </r>
       <r>   -10.7436     0.0000    48.0000 </r>
       <r>   -10.5362     0.0000    48.0000 </r>
       <r>   -10.3288     0.0000    48.0000 </r>
       <r>   -10.1215     0.0000    48.0000 </r>
       <r>    -9.9141     0.0000    48.0000 </r>
       <r>    -9.7067     0.0000    48.0000 </r>
       <r>    -9.4993     0.0000    48.0000 </r>
       <r>    -9.2919     0.0000    48.0000 </r>
       <r>    -9.0846     0.0000    48.0000 </r>
       <r>    -8.8772     0.0000    48.0000 </r>
       <r>    -8.6698     0.0000    48.0000 </r>
       <r>    -8.4624     0.0000    48.0000 </r>
       <r>    -8.2551     0.0000    48.0000 </r>
       <r>    -8.0477     0.0000    48.0000 </r>
       <r>    -7.8403     0.0000    48.0000 </r>
       <r>    -7.6329     0.0000    48.0000 </r>
       <r>    -7.4256     0.0000    48.0000 </r>
       <r>    -7.2182     0.0000    48.0000 </r>
       <r>    -7.0108     0.0000    48.0000 </r>
       <r>    -6.8034     0.0000    48.0000 </r>
       <r>    -6.5960     0.0000    48.0000 </r>
       <r>    -6.3887     0.0000    48.0000 </r>
       <r>    -6.1813     0.0000    48.0000 </r>
       <r>    -5.9739     0.0000    48.0000 </r>
       <r>    -5.7665     0.0000    48.0000 </r>
       <r>    -5.5592     0.0000    48.0000 </r>
       <r>    -5.3518     0.0000    48.0000 </r>
       <r>    -5.1444     0.0000    48.0000 </r>
       <r>    -4.9370     0.0000    48.0000 </r>
       <r>    -4.7297     0.0000    48.0000 </r>
       <r>    -4.5223     0.0000    48.0000 </r>
       <r>    -4.3149     0.0000    48.0000 </r>
       <r>    -4.1075     0.0000    48.0000 </r>
       <r>    -3.9001     0.0000    48.0000 </r>
       <r>    -3.6928     0.0000    48.0000 </r>
       <r>    -3.4854     0.0000    48.0000 </r>
       <r>    -3.2780     0.0000    48.0000 </r>
       <r>    -3.0706     0.0000    48.0000 </r>
       <r>    -2.8633     0.0000    48.0000 </r>
       <r>    -2.6559     0.0000    48.0000 </r>
       <r>    -2.4485     0.0000    48.0000 </r>
       <r>    -2.2411    -0.0000    48.0000 </r>
       <r>    -2.0338    -0.0000    48.0000 </r>
       <r>    -1.8264    -0.0000    48.0000 </r>
       <r>    -1.6190    -0.0000    48.0000 </r>
       <r>    -1.4116    -0.0000    48.0000 </r>
       <r>    -1.2042    -0.0000    48.0000 </r>
       <r>    -0.9969    -0.0006    47.9999 </r>
       <r>    -0.7895    -0.0115    47.9975 </r>
       <r>    -0.5821     0.0399    48.0057 </r>
       <r>    -0.3747     0.5454    48.1188 </r>
       <r>    -0.1674     1.3443    48.3976 </r>
       <r>     0.0400     1.6906    48.7482 </r>
       <r>     0.2474     1.6489    49.0902 </r>
       <r>     0.4548     2.1714    49.5405 </r>
       <r>     0.6621     2.5605    50.0714 </r>
       <r>     0.8695     2.9585    50.6850 </r>
       <r>     1.0769     2.9305    51.2927 </r>
       <r>     1.2843     3.9732    52.1167 </r>
       <r>     1.4917     4.9353    53.1401 </r>
       <r>     1.6990     3.7528    53.9184 </r>
       <r>     1.9064     4.6916    54.8913 </r>
       <r>     2.1138     6.4104    56.2206 </r>
       <r>     2.3212    10.6352    58.4261 </r>
       <r>     2.5285    14.6772    61.4699 </r>
       <r>     2.7359    19.0052    65.4111 </r>
       <r>     2.9433    22.2736    70.0301 </r>
       <r>     3.1507    25.3323    75.2834 </r>
       <r>     3.3580    29.6933    81.4411 </r>
       <r>     3.5654    33.3069    88.3482 </r>
       <r>     3.7728    32.5079    95.0896 </r>
       <r>     3.9802    33.0000   101.9330 </r>
       <r>     4.1875    29.0580   107.9590 </r>
       <r>     4.3949    19.7196   112.0484 </r>
       <r>     4.6023    22.9771   116.8133 </r>
       <r>     4.8097    38.0681   124.7078 </r>
       <r>     5.0171    46.3271   134.3149 </r>
       <r>     5.2244    45.7545   143.8033 </r>
       <r>     5.4318    39.2708   151.9472 </r>
       <r>     5.6392    36.6419   159.5459 </r>
       <r>     5.8466    39.0272   167.6392 </r>
       <r>     6.0539    43.5726   176.6752 </r>
       <r>     6.2613    45.8249   186.1782 </r>
       <r>     6.4687    42.3295   194.9563 </r>
       <r>     6.6761    37.6205   202.7580 </r>
       <r>     6.8834    32.9733   209.5959 </r>
       <r>     7.0908    24.9440   214.7687 </r>
       <r>     7.2982    16.6777   218.2273 </r>
       <r>     7.5056    14.5848   221.2518 </r>
       <r>     7.7130    13.2637   224.0024 </r>
       <r>     7.9203    14.0773   226.9217 </r>
       <r>     8.1277    16.6298   230.3703 </r>
       <r>     8.3351    21.0095   234.7272 </r>
       <r>     8.5425    25.7763   240.0726 </r>
       <r>     8.7498    29.3288   246.1547 </r>
       <r>     8.9572    28.5939   252.0844 </r>
       <r>     9.1646    16.6380   255.5348 </r>
       <r>     9.3720     2.6309   256.0803 </r>
       <r>     9.5793    -0.3511   256.0075 </r>
       <r>     9.7867    -0.0360   256.0001 </r>
       <r>     9.9941    -0.0003   256.0000 </r>
       <r>    10.2015    -0.0000   256.0000 </r>
       <r>    10.4089    -0.0000   256.0000 </r>
       <r>    10.6162    -0.0000   256.0000 </r>
       <r>    10.8236     0.0000   256.0000 </r>
       <r>    11.0310     0.0000   256.0000 </r>
       <r>    11.2384     0.0000   256.0000 </r>
       <r>    11.4457     0.0000   256.0000 </r>
       <r>    11.6531     0.0000   256.0000 </r>
       <r>    11.8605     0.0000   256.0000 </r>
       <r>    12.0679     0.0000   256.0000 </r>
      </set>
     </set>
    </array>
   </total>
  </dos>
 </calculation>
 <structure name="finalpos" >
  <crystal>
   <varray name="basis" >
    <v>       0.00000000       0.00000000       6.42000000 </v>
    <v>       8.02500000       1.60500000       1.60500000 </v>
    <v>       0.00000000       9.63000000       3.21000000 </v>
   </varray>
   <i name="volume">    496.14241500 </i>
   <varray name="rec_basis" >
    <v>      -0.02076843      -0.05192108       0.15576324 </v>
    <v>       0.12461059       0.00000000       0.00000000 </v>
    <v>      -0.02076843       0.10384216       0.00000000 </v>
   </varray>
  </crystal>
  <varray name="positions" >
   <v>       0.00000000       0.00000000       0.00000000 </v>
   <v>       0.83333333       0.00000000       0.33333333 </v>
   <v>       0.10000000       0.40000000       0.60000000 </v>
   <v>       0.20000000       0.80000000       0.20000000 </v>
   <v>       0.80000000       0.20000000       0.80000000 </v>
   <v>       0.93333333       0.40000000       0.93333333 </v>
   <v>       0.50000000       0.00000000       0.00000000 </v>
   <v>       0.33333333       0.00000000       0.33333333 </v>
   <v>       0.46666667       0.20000000       0.46666667 </v>
   <v>       0.23333333       0.60000000       0.73333333 </v>
   <v>       0.73333333       0.60000000       0.73333333 </v>
   <v>       0.86666667       0.80000000       0.86666667 </v>
   <v>       0.13333333       0.20000000       0.13333333 </v>
   <v>       0.63333333       0.20000000       0.13333333 </v>
   <v>       0.66666667       0.00000000       0.66666667 </v>
   <v>       0.76666667       0.40000000       0.26666667 </v>
   <v>       0.40000000       0.60000000       0.40000000 </v>
   <v>       0.60000000       0.40000000       0.60000000 </v>
   <v>       0.16666667       0.00000000       0.66666667 </v>
   <v>       0.26666667       0.40000000       0.26666667 </v>
   <v>       0.30000000       0.20000000       0.80000000 </v>
   <v>       0.90000000       0.60000000       0.40000000 </v>
   <v>       0.53333333       0.80000000       0.53333333 </v>
   <v>       0.36666667       0.80000000       0.86666667 </v>
   <v>       0.06666667       0.60000000       0.06666667 </v>
   <v>       0.56666667       0.60000000       0.06666667 </v>
   <v>       0.96666667       0.20000000       0.46666667 </v>
   <v>       0.70000000       0.80000000       0.20000000 </v>
   <v>       0.03333333       0.80000000       0.53333333 </v>
   <v>       0.43333333       0.40000000       0.93333333 </v>
  </varray>
 </structure>
</modeling>
