  29  29   0   0
  0.1632129E+02  0.5473281E-09  0.8209921E-09  0.1128346E-08  0.5000000E-15
  1.000000000000000E-004
  CAR 
 Nb - Mo - Ta - Ti - V SQS               
     11.63408042    -50.34294158  301      6.54922269      1.00000000
    -50.343  0.0000E+00  0.0000E+00
    -50.136  0.0000E+00  0.0000E+00
    -49.930  0.0000E+00  0.0000E+00
    -49.723  0.0000E+00  0.0000E+00
    -49.517  0.0000E+00  0.0000E+00
    -49.310 -0.5489E-35 -0.1134E-35
    -49.103 -0.2107E-27 -0.4354E-28
    -48.897 -0.8353E-21 -0.1726E-21
    -48.690 -0.3809E-15 -0.7869E-16
    -48.484 -0.2049E-10 -0.4234E-11
    -48.277 -0.1276E-06 -0.2636E-07
    -48.070 -0.8820E-04 -0.1825E-04
    -47.864 -0.5922E-02 -0.1242E-02
    -47.657 -0.7215E-03 -0.1391E-02
    -47.451  0.3393E+00  0.6871E-01
    -47.244  0.5948E+00  0.1916E+00
    -47.038  0.2539E+00  0.2440E+00
    -46.831 -0.1646E-01  0.2406E+00
    -46.624 -0.3084E-02  0.2400E+00
    -46.418 -0.2592E-04  0.2400E+00
    -46.211 -0.2211E-07  0.2400E+00
    -46.005 -0.2112E-11  0.2400E+00
    -45.798 -0.1843E-16  0.2400E+00
    -45.591  0.0000E+00  0.2400E+00
    -45.385  0.0000E+00  0.2400E+00
    -45.178  0.0000E+00  0.2400E+00
    -44.972  0.0000E+00  0.2400E+00
    -44.765  0.0000E+00  0.2400E+00
    -44.558  0.0000E+00  0.2400E+00
    -44.352  0.0000E+00  0.2400E+00
    -44.145  0.0000E+00  0.2400E+00
    -43.939  0.0000E+00  0.2400E+00
    -43.732  0.0000E+00  0.2400E+00
    -43.525  0.0000E+00  0.2400E+00
    -43.319  0.0000E+00  0.2400E+00
    -43.112  0.0000E+00  0.2400E+00
    -42.906  0.0000E+00  0.2400E+00
    -42.699  0.0000E+00  0.2400E+00
    -42.493  0.0000E+00  0.2400E+00
    -42.286  0.0000E+00  0.2400E+00
    -42.079  0.0000E+00  0.2400E+00
    -41.873  0.0000E+00  0.2400E+00
    -41.666  0.0000E+00  0.2400E+00
    -41.460  0.0000E+00  0.2400E+00
    -41.253  0.0000E+00  0.2400E+00
    -41.046  0.0000E+00  0.2400E+00
    -40.840  0.0000E+00  0.2400E+00
    -40.633  0.0000E+00  0.2400E+00
    -40.427  0.0000E+00  0.2400E+00
    -40.220  0.0000E+00  0.2400E+00
    -40.013  0.0000E+00  0.2400E+00
    -39.807  0.0000E+00  0.2400E+00
    -39.600  0.0000E+00  0.2400E+00
    -39.394  0.0000E+00  0.2400E+00
    -39.187  0.0000E+00  0.2400E+00
    -38.980  0.0000E+00  0.2400E+00
    -38.774  0.0000E+00  0.2400E+00
    -38.567  0.0000E+00  0.2400E+00
    -38.361  0.0000E+00  0.2400E+00
    -38.154  0.0000E+00  0.2400E+00
    -37.948  0.0000E+00  0.2400E+00
    -37.741  0.0000E+00  0.2400E+00
    -37.534  0.0000E+00  0.2400E+00
    -37.328  0.0000E+00  0.2400E+00
    -37.121  0.0000E+00  0.2400E+00
    -36.915  0.0000E+00  0.2400E+00
    -36.708  0.0000E+00  0.2400E+00
    -36.501  0.0000E+00  0.2400E+00
    -36.295  0.0000E+00  0.2400E+00
    -36.088  0.0000E+00  0.2400E+00
    -35.882  0.0000E+00  0.2400E+00
    -35.675  0.0000E+00  0.2400E+00
    -35.468  0.0000E+00  0.2400E+00
    -35.262  0.0000E+00  0.2400E+00
    -35.055  0.0000E+00  0.2400E+00
    -34.849  0.0000E+00  0.2400E+00
    -34.642  0.0000E+00  0.2400E+00
    -34.436  0.0000E+00  0.2400E+00
    -34.229  0.0000E+00  0.2400E+00
    -34.022  0.0000E+00  0.2400E+00
    -33.816  0.0000E+00  0.2400E+00
    -33.609  0.0000E+00  0.2400E+00
    -33.403  0.0000E+00  0.2400E+00
    -33.196  0.0000E+00  0.2400E+00
    -32.989  0.0000E+00  0.2400E+00
    -32.783  0.0000E+00  0.2400E+00
    -32.576  0.0000E+00  0.2400E+00
    -32.370  0.0000E+00  0.2400E+00
    -32.163  0.0000E+00  0.2400E+00
    -31.956  0.0000E+00  0.2400E+00
    -31.750  0.0000E+00  0.2400E+00
    -31.543  0.0000E+00  0.2400E+00
    -31.337  0.0000E+00  0.2400E+00
    -31.130  0.0000E+00  0.2400E+00
    -30.923  0.0000E+00  0.2400E+00
    -30.717  0.0000E+00  0.2400E+00
    -30.510  0.0000E+00  0.2400E+00
    -30.304  0.0000E+00  0.2400E+00
    -30.097  0.0000E+00  0.2400E+00
    -29.891  0.0000E+00  0.2400E+00
    -29.684  0.0000E+00  0.2400E+00
    -29.477  0.0000E+00  0.2400E+00
    -29.271  0.0000E+00  0.2400E+00
    -29.064  0.0000E+00  0.2400E+00
    -28.858  0.0000E+00  0.2400E+00
    -28.651  0.0000E+00  0.2400E+00
    -28.444  0.0000E+00  0.2400E+00
    -28.238  0.0000E+00  0.2400E+00
    -28.031  0.0000E+00  0.2400E+00
    -27.825  0.0000E+00  0.2400E+00
    -27.618  0.0000E+00  0.2400E+00
    -27.411  0.0000E+00  0.2400E+00
    -27.205  0.0000E+00  0.2400E+00
    -26.998  0.0000E+00  0.2400E+00
    -26.792  0.0000E+00  0.2400E+00
    -26.585  0.0000E+00  0.2400E+00
    -26.378  0.0000E+00  0.2400E+00
    -26.172  0.0000E+00  0.2400E+00
    -25.965 -0.4357E-32  0.2400E+00
    -25.759 -0.5339E-25  0.2400E+00
    -25.552 -0.7664E-19  0.2400E+00
    -25.346 -0.1246E-13  0.2400E+00
    -25.139 -0.2419E-09  0.2400E+00
    -24.932 -0.5442E-06  0.2400E+00
    -24.726 -0.1393E-03  0.2400E+00
    -24.519 -0.3611E-02  0.2392E+00
    -24.313  0.1039E-01  0.2414E+00
    -24.106  0.1630E+00  0.2751E+00
    -23.899  0.3154E+00  0.3402E+00
    -23.693  0.5046E+00  0.4445E+00
    -23.486  0.9887E+00  0.6487E+00
    -23.280  0.9018E+00  0.8350E+00
    -23.073  0.4038E+00  0.9184E+00
    -22.866  0.1854E+00  0.9567E+00
    -22.660  0.2033E-01  0.9609E+00
    -22.453 -0.4238E-02  0.9601E+00
    -22.247 -0.2899E-03  0.9600E+00
    -22.040 -0.1848E-05  0.9600E+00
    -21.834 -0.1317E-08  0.9600E+00
    -21.627 -0.1079E-12  0.9600E+00
    -21.420  0.0000E+00  0.9600E+00
    -21.214  0.0000E+00  0.9600E+00
    -21.007  0.0000E+00  0.9600E+00
    -20.801  0.0000E+00  0.9600E+00
    -20.594  0.0000E+00  0.9600E+00
    -20.387  0.0000E+00  0.9600E+00
    -20.181  0.0000E+00  0.9600E+00
    -19.974  0.0000E+00  0.9600E+00
    -19.768  0.0000E+00  0.9600E+00
    -19.561  0.0000E+00  0.9600E+00
    -19.354  0.0000E+00  0.9600E+00
    -19.148  0.0000E+00  0.9600E+00
    -18.941  0.0000E+00  0.9600E+00
    -18.735  0.0000E+00  0.9600E+00
    -18.528  0.0000E+00  0.9600E+00
    -18.321  0.0000E+00  0.9600E+00
    -18.115  0.0000E+00  0.9600E+00
    -17.908  0.0000E+00  0.9600E+00
    -17.702  0.0000E+00  0.9600E+00
    -17.495  0.0000E+00  0.9600E+00
    -17.289  0.0000E+00  0.9600E+00
    -17.082  0.0000E+00  0.9600E+00
    -16.875  0.0000E+00  0.9600E+00
    -16.669  0.0000E+00  0.9600E+00
    -16.462  0.0000E+00  0.9600E+00
    -16.256  0.0000E+00  0.9600E+00
    -16.049  0.0000E+00  0.9600E+00
    -15.842  0.0000E+00  0.9600E+00
    -15.636  0.0000E+00  0.9600E+00
    -15.429  0.0000E+00  0.9600E+00
    -15.223  0.0000E+00  0.9600E+00
    -15.016  0.0000E+00  0.9600E+00
    -14.809  0.0000E+00  0.9600E+00
    -14.603  0.0000E+00  0.9600E+00
    -14.396  0.0000E+00  0.9600E+00
    -14.190  0.0000E+00  0.9600E+00
    -13.983  0.0000E+00  0.9600E+00
    -13.776  0.0000E+00  0.9600E+00
    -13.570  0.0000E+00  0.9600E+00
    -13.363  0.0000E+00  0.9600E+00
    -13.157  0.0000E+00  0.9600E+00
    -12.950  0.0000E+00  0.9600E+00
    -12.744  0.0000E+00  0.9600E+00
    -12.537  0.0000E+00  0.9600E+00
    -12.330  0.0000E+00  0.9600E+00
    -12.124  0.0000E+00  0.9600E+00
    -11.917  0.0000E+00  0.9600E+00
    -11.711  0.0000E+00  0.9600E+00
    -11.504  0.0000E+00  0.9600E+00
    -11.297  0.0000E+00  0.9600E+00
    -11.091  0.0000E+00  0.9600E+00
    -10.884  0.0000E+00  0.9600E+00
    -10.678  0.0000E+00  0.9600E+00
    -10.471  0.0000E+00  0.9600E+00
    -10.264  0.0000E+00  0.9600E+00
    -10.058  0.0000E+00  0.9600E+00
     -9.851  0.0000E+00  0.9600E+00
     -9.645  0.0000E+00  0.9600E+00
     -9.438  0.0000E+00  0.9600E+00
     -9.232  0.0000E+00  0.9600E+00
     -9.025  0.0000E+00  0.9600E+00
     -8.818  0.0000E+00  0.9600E+00
     -8.612  0.0000E+00  0.9600E+00
     -8.405  0.0000E+00  0.9600E+00
     -8.199  0.0000E+00  0.9600E+00
     -7.992  0.0000E+00  0.9600E+00
     -7.785  0.0000E+00  0.9600E+00
     -7.579  0.0000E+00  0.9600E+00
     -7.372  0.0000E+00  0.9600E+00
     -7.166  0.0000E+00  0.9600E+00
     -6.959  0.0000E+00  0.9600E+00
     -6.752  0.0000E+00  0.9600E+00
     -6.546  0.0000E+00  0.9600E+00
     -6.339  0.0000E+00  0.9600E+00
     -6.133  0.0000E+00  0.9600E+00
     -5.926  0.0000E+00  0.9600E+00
     -5.719  0.0000E+00  0.9600E+00
     -5.513  0.0000E+00  0.9600E+00
     -5.306  0.0000E+00  0.9600E+00
     -5.100  0.0000E+00  0.9600E+00
     -4.893  0.0000E+00  0.9600E+00
     -4.687  0.0000E+00  0.9600E+00
     -4.480  0.0000E+00  0.9600E+00
     -4.273  0.0000E+00  0.9600E+00
     -4.067  0.0000E+00  0.9600E+00
     -3.860  0.0000E+00  0.9600E+00
     -3.654  0.0000E+00  0.9600E+00
     -3.447  0.0000E+00  0.9600E+00
     -3.240  0.0000E+00  0.9600E+00
     -3.034  0.0000E+00  0.9600E+00
     -2.827  0.0000E+00  0.9600E+00
     -2.621  0.0000E+00  0.9600E+00
     -2.414  0.0000E+00  0.9600E+00
     -2.207  0.0000E+00  0.9600E+00
     -2.001 -0.1910E-36  0.9600E+00
     -1.794 -0.5180E-29  0.9600E+00
     -1.588 -0.1657E-22  0.9600E+00
     -1.381 -0.6103E-17  0.9600E+00
     -1.175 -0.2726E-12  0.9600E+00
     -0.968 -0.1447E-08  0.9600E+00
     -0.761 -0.9168E-06  0.9600E+00
     -0.555 -0.6786E-04  0.9600E+00
     -0.348 -0.3593E-03  0.9599E+00
     -0.142  0.4481E-02  0.9608E+00
      0.065  0.2004E-01  0.9650E+00
      0.272  0.2582E-01  0.9703E+00
      0.478  0.3603E-01  0.9778E+00
      0.685  0.4069E-01  0.9862E+00
      0.891  0.3537E-01  0.9935E+00
      1.098  0.5903E-01  0.1006E+01
      1.305  0.6274E-01  0.1019E+01
      1.511  0.6921E-01  0.1033E+01
      1.718  0.7549E-01  0.1049E+01
      1.924  0.8957E-01  0.1067E+01
      2.131  0.1086E+00  0.1089E+01
      2.338  0.1287E+00  0.1116E+01
      2.544  0.1862E+00  0.1155E+01
      2.751  0.2969E+00  0.1216E+01
      2.957  0.4089E+00  0.1300E+01
      3.164  0.4812E+00  0.1400E+01
      3.370  0.5714E+00  0.1518E+01
      3.577  0.6050E+00  0.1643E+01
      3.784  0.6397E+00  0.1775E+01
      3.990  0.6536E+00  0.1910E+01
      4.197  0.6335E+00  0.2041E+01
      4.403  0.5479E+00  0.2154E+01
      4.610  0.5015E+00  0.2258E+01
      4.817  0.6095E+00  0.2384E+01
      5.023  0.7567E+00  0.2540E+01
      5.230  0.8380E+00  0.2713E+01
      5.436  0.8574E+00  0.2890E+01
      5.643  0.8343E+00  0.3062E+01
      5.850  0.8262E+00  0.3233E+01
      6.056  0.8550E+00  0.3410E+01
      6.263  0.8893E+00  0.3594E+01
      6.469  0.8722E+00  0.3774E+01
      6.676  0.7865E+00  0.3936E+01
      6.883  0.6553E+00  0.4072E+01
      7.089  0.5201E+00  0.4179E+01
      7.296  0.4228E+00  0.4266E+01
      7.502  0.3714E+00  0.4343E+01
      7.709  0.3512E+00  0.4416E+01
      7.915  0.3756E+00  0.4493E+01
      8.122  0.4634E+00  0.4589E+01
      8.329  0.4844E+00  0.4689E+01
      8.535  0.3624E+00  0.4764E+01
      8.742  0.1641E+00  0.4798E+01
      8.948  0.1428E-01  0.4801E+01
      9.155 -0.3503E-02  0.4800E+01
      9.362 -0.2177E-03  0.4800E+01
      9.568 -0.1624E-05  0.4800E+01
      9.775 -0.1688E-08  0.4800E+01
      9.981 -0.2375E-12  0.4800E+01
     10.188 -0.4136E-17  0.4800E+01
     10.395  0.0000E+00  0.4800E+01
     10.601  0.0000E+00  0.4800E+01
     10.808  0.0000E+00  0.4800E+01
     11.014  0.0000E+00  0.4800E+01
     11.221  0.0000E+00  0.4800E+01
     11.427  0.0000E+00  0.4800E+01
     11.634  0.0000E+00  0.4800E+01
