   29   29   50    1
  0.1632129E+02  0.5473281E-09  0.8209921E-09  0.1128346E-08  0.5000000E-15
  1.000000000000000E-004
  CAR 
 Nb - Mo - Ta - Ti - V SQS               
    192    172    120
 
  0.0000000E+00  0.0000000E+00  0.0000000E+00  0.2915452E-02
    1      -47.525804   1.000000
    2      -47.484993   1.000000
    3      -47.416806   1.000000
    4      -47.306647   1.000000
    5      -47.249494   1.000000
    6      -47.216863   1.000000
    7      -24.270564   1.000000
    8      -24.099581   1.000000
    9      -23.918761   1.000000
   10      -23.867277   1.000000
   11      -23.681430   1.000000
   12      -23.673488   1.000000
   13      -23.637484   1.000000
   14      -23.593374   1.000000
   15      -23.521842   1.000000
   16      -23.506948   1.000000
   17      -23.446310   1.000000
   18      -23.433813   1.000000
   19      -23.405606   1.000000
   20      -23.376715   1.000000
   21      -23.283088   1.000000
   22      -23.186779   1.000000
   23      -23.054083   1.000000
   24      -22.866161   1.000000
   25       -0.233373   1.000000
   26        1.079411   1.000000
   27        1.475693   1.000000
   28        2.279616   1.000000
   29        2.382247   1.000000
   30        2.426169   1.000000
   31        2.604196   1.000000
   32        2.724925   1.000000
   33        2.729488   1.000000
   34        2.813916   1.000000
   35        2.867402   1.000000
   36        2.914330   1.000000
   37        2.972495   1.000000
   38        3.113777   1.000000
   39        3.201378   1.000000
   40        3.279066   1.000000
   41        3.381398   1.000000
   42        3.405951   1.000000
   43        3.528651   1.000000
   44        3.581447   1.000000
   45        3.615085   1.000000
   46        3.667005   1.000000
   47        3.720992   1.000000
   48        3.758985   1.000000
   49        3.886449   1.000000
   50        3.910901   1.000000
   51        4.035053   1.000000
   52        4.140694   1.000000
   53        4.169375   1.000000
   54        4.243460   1.000000
   55        4.268841   1.000000
   56        4.416384   1.000000
   57        4.450225   1.000000
   58        4.605861   1.000000
   59        4.620342   1.000000
   60        4.651020   1.000000
   61        4.726489   1.000000
   62        4.810650   1.000000
   63        4.881253   1.000000
   64        4.941311   1.000000
   65        4.968540   1.000000
   66        5.025506   1.000000
   67        5.096693   1.000000
   68        5.151701   1.000000
   69        5.183239   1.000000
   70        5.220024   1.000000
   71        5.243338   1.000000
   72        5.297360   1.000000
   73        5.336709   1.000000
   74        5.382534   1.000000
   75        5.487846   1.000000
   76        5.528666   1.000000
   77        5.561630   1.000000
   78        5.710097   1.000000
   79        5.748199   1.000000
   80        5.802977   1.000001
   81        5.881561   1.000012
   82        5.907593   1.000028
   83        6.002533   1.000383
   84        6.089527   1.002716
   85        6.108559   1.003927
   86        6.177032   1.012201
   87        6.228870   1.022984
   88        6.254907   1.028898
   89        6.273147   1.032465
   90        6.331171   1.032136
   91        6.389197   0.990080
   92        6.403196   0.969954
   93        6.491370   0.733808
   94        6.581408   0.365750
   95        6.680148   0.056977
   96        6.735516  -0.016476
   97        6.824442  -0.032610
   98        6.867152  -0.023545
   99        6.921221  -0.012234
  100        6.945792  -0.008447
  101        7.109233  -0.000273
  102        7.166704  -0.000057
  103        7.318345  -0.000000
  104        7.396106  -0.000000
  105        7.461371  -0.000000
  106        7.554805  -0.000000
  107        7.658998  -0.000000
  108        7.697724  -0.000000
  109        7.848020  -0.000000
  110        8.107770  -0.000000
  111        8.287499  -0.000000
  112        8.327771  -0.000000
  113        8.444527  -0.000000
  114        8.490971  -0.000000
  115        8.552762  -0.000000
  116        8.574844  -0.000000
  117        8.641054  -0.000000
  118        8.664012  -0.000000
  119        8.685850  -0.000000
  120        8.770052  -0.000000
 
  0.1428571E+00  0.0000000E+00 -0.1561251E-16  0.5830904E-02
    1      -47.521362   1.000000
    2      -47.484480   1.000000
    3      -47.416454   1.000000
    4      -47.306524   1.000000
    5      -47.249532   1.000000
    6      -47.221880   1.000000
    7      -24.212790   1.000000
    8      -24.096855   1.000000
    9      -23.915201   1.000000
   10      -23.865105   1.000000
   11      -23.677167   1.000000
   12      -23.674140   1.000000
   13      -23.639850   1.000000
   14      -23.596044   1.000000
   15      -23.522126   1.000000
   16      -23.510252   1.000000
   17      -23.447959   1.000000
   18      -23.434992   1.000000
   19      -23.410420   1.000000
   20      -23.377869   1.000000
   21      -23.285312   1.000000
   22      -23.191466   1.000000
   23      -23.055227   1.000000
   24      -22.935570   1.000000
   25       -0.070039   1.000000
   26        1.226034   1.000000
   27        1.603803   1.000000
   28        2.286791   1.000000
   29        2.474171   1.000000
   30        2.585315   1.000000
   31        2.686246   1.000000
   32        2.794768   1.000000
   33        2.830330   1.000000
   34        2.870662   1.000000
   35        2.972076   1.000000
   36        3.037504   1.000000
   37        3.109659   1.000000
   38        3.231067   1.000000
   39        3.266080   1.000000
   40        3.353966   1.000000
   41        3.430694   1.000000
   42        3.465360   1.000000
   43        3.524189   1.000000
   44        3.594509   1.000000
   45        3.662452   1.000000
   46        3.696844   1.000000
   47        3.765579   1.000000
   48        3.855170   1.000000
   49        3.966921   1.000000
   50        4.014118   1.000000
   51        4.080775   1.000000
   52        4.168905   1.000000
   53        4.198849   1.000000
   54        4.285592   1.000000
   55        4.316063   1.000000
   56        4.412173   1.000000
   57        4.463735   1.000000
   58        4.525304   1.000000
   59        4.650664   1.000000
   60        4.684363   1.000000
   61        4.800474   1.000000
   62        4.883320   1.000000
   63        4.912881   1.000000
   64        5.006603   1.000000
   65        5.034331   1.000000
   66        5.091844   1.000000
   67        5.119657   1.000000
   68        5.163562   1.000000
   69        5.249154   1.000000
   70        5.274618   1.000000
   71        5.300506   1.000000
   72        5.373793   1.000000
   73        5.393466   1.000000
   74        5.440920   1.000000
   75        5.506841   1.000000
   76        5.528386   1.000000
   77        5.599467   1.000000
   78        5.640758   1.000000
   79        5.720440   1.000000
   80        5.764527   1.000000
   81        5.877518   1.000011
   82        5.911067   1.000031
   83        5.979317   1.000211
   84        6.035319   1.000844
   85        6.072517   1.001918
   86        6.131660   1.005958
   87        6.192386   1.015047
   88        6.218715   1.020658
   89        6.271668   1.032210
   90        6.319672   1.034446
   91        6.349429   1.025020
   92        6.448684   0.871573
   93        6.472257   0.800474
   94        6.538824   0.543935
   95        6.550528   0.494479
   96        6.614994   0.237679
   97        6.649534   0.129049
   98        6.799253  -0.035362
   99        6.831358  -0.031375
  100        6.921464  -0.012192
  101        6.955565  -0.007206
  102        7.120158  -0.000206
  103        7.146127  -0.000102
  104        7.179397  -0.000039
  105        7.314100  -0.000000
  106        7.401861  -0.000000
  107        7.457529  -0.000000
  108        7.600023  -0.000000
  109        7.676333  -0.000000
  110        7.922747  -0.000000
  111        8.071833  -0.000000
  112        8.114003  -0.000000
  113        8.180883  -0.000000
  114        8.238354  -0.000000
  115        8.310825  -0.000000
  116        8.364485  -0.000000
  117        8.415316  -0.000000
  118        8.440045  -0.000000
  119        8.536061  -0.000000
  120        8.613500  -0.000000
 
  0.2857143E+00  0.1387779E-16  0.3469447E-17  0.5830904E-02
    1      -47.511098   1.000000
    2      -47.482984   1.000000
    3      -47.415652   1.000000
    4      -47.306268   1.000000
    5      -47.249652   1.000000
    6      -47.233735   1.000000
    7      -24.113808   1.000000
    8      -24.031808   1.000000
    9      -23.902838   1.000000
   10      -23.858269   1.000000
   11      -23.678342   1.000000
   12      -23.664415   1.000000
   13      -23.645116   1.000000
   14      -23.601758   1.000000
   15      -23.522740   1.000000
   16      -23.517699   1.000000
   17      -23.452316   1.000000
   18      -23.437441   1.000000
   19      -23.421778   1.000000
   20      -23.381412   1.000000
   21      -23.293764   1.000000
   22      -23.202879   1.000000
   23      -23.128558   1.000000
   24      -23.049610   1.000000
   25        0.393604   1.000000
   26        1.616210   1.000000
   27        1.937209   1.000000
   28        2.382075   1.000000
   29        2.634006   1.000000
   30        2.702273   1.000000
   31        2.889267   1.000000
   32        2.996337   1.000000
   33        3.054201   1.000000
   34        3.124075   1.000000
   35        3.178311   1.000000
   36        3.257555   1.000000
   37        3.326147   1.000000
   38        3.400905   1.000000
   39        3.453533   1.000000
   40        3.497502   1.000000
   41        3.533878   1.000000
   42        3.622387   1.000000
   43        3.660801   1.000000
   44        3.715111   1.000000
   45        3.747490   1.000000
   46        3.859925   1.000000
   47        3.938128   1.000000
   48        3.991205   1.000000
   49        4.041988   1.000000
   50        4.095988   1.000000
   51        4.251375   1.000000
   52        4.277365   1.000000
   53        4.374830   1.000000
   54        4.412988   1.000000
   55        4.469442   1.000000
   56        4.490274   1.000000
   57        4.575881   1.000000
   58        4.628800   1.000000
   59        4.693785   1.000000
   60        4.756026   1.000000
   61        4.855861   1.000000
   62        4.898049   1.000000
   63        4.977027   1.000000
   64        5.007218   1.000000
   65        5.103296   1.000000
   66        5.136585   1.000000
   67        5.186455   1.000000
   68        5.254588   1.000000
   69        5.299044   1.000000
   70        5.330313   1.000000
   71        5.395188   1.000000
   72        5.437974   1.000000
   73        5.478349   1.000000
   74        5.520861   1.000000
   75        5.582193   1.000000
   76        5.619731   1.000000
   77        5.660702   1.000000
   78        5.695617   1.000000
   79        5.739215   1.000000
   80        5.789443   1.000001
   81        5.827198   1.000002
   82        5.844141   1.000004
   83        5.882987   1.000013
   84        5.942540   1.000077
   85        6.008124   1.000440
   86        6.084154   1.002438
   87        6.110399   1.004064
   88        6.177532   1.012288
   89        6.221337   1.021254
   90        6.268325   1.031607
   91        6.318301   1.034625
   92        6.351014   1.024173
   93        6.378420   1.002605
   94        6.451427   0.863984
   95        6.476174   0.787425
   96        6.504371   0.684593
   97        6.566643   0.426597
   98        6.606795   0.267223
   99        6.677208   0.062874
  100        6.740974  -0.020300
  101        6.784104  -0.035040
  102        6.862655  -0.024586
  103        6.887558  -0.018912
  104        6.941535  -0.009034
  105        7.034152  -0.001611
  106        7.103445  -0.000317
  107        7.193999  -0.000025
  108        7.307068  -0.000001
  109        7.352227  -0.000000
  110        7.453471  -0.000000
  111        7.540587  -0.000000
  112        7.675308  -0.000000
  113        7.768686  -0.000000
  114        7.872459  -0.000000
  115        7.928792  -0.000000
  116        7.992346  -0.000000
  117        8.087225  -0.000000
  118        8.140776  -0.000000
  119        8.266779  -0.000000
  120        8.346153  -0.000000
 
  0.4285714E+00  0.5551115E-16 -0.4163336E-16  0.5830904E-02
    1      -47.502863   1.000000
    2      -47.481033   1.000000
    3      -47.414997   1.000000
    4      -47.306096   1.000000
    5      -47.249938   1.000000
    6      -47.243786   1.000000
    7      -24.105909   1.000000
    8      -23.923411   1.000000
    9      -23.865891   1.000000
   10      -23.764794   1.000000
   11      -23.681151   1.000000
   12      -23.654890   1.000000
   13      -23.649197   1.000000
   14      -23.606020   1.000000
   15      -23.528411   1.000000
   16      -23.522382   1.000000
   17      -23.456592   1.000000
   18      -23.441927   1.000000
   19      -23.432361   1.000000
   20      -23.410953   1.000000
   21      -23.373353   1.000000
   22      -23.270244   1.000000
   23      -23.209334   1.000000
   24      -23.052663   1.000000
   25        1.069104   1.000000
   26        1.798040   1.000000
   27        2.238436   1.000000
   28        2.451557   1.000000
   29        2.590509   1.000000
   30        2.869055   1.000000
   31        2.931041   1.000000
   32        3.088853   1.000000
   33        3.196534   1.000000
   34        3.282824   1.000000
   35        3.352951   1.000000
   36        3.378791   1.000000
   37        3.465342   1.000000
   38        3.545990   1.000000
   39        3.605895   1.000000
   40        3.656913   1.000000
   41        3.716111   1.000000
   42        3.773628   1.000000
   43        3.840848   1.000000
   44        3.880180   1.000000
   45        3.970805   1.000000
   46        4.013585   1.000000
   47        4.063745   1.000000
   48        4.148949   1.000000
   49        4.178400   1.000000
   50        4.233695   1.000000
   51        4.352209   1.000000
   52        4.386358   1.000000
   53        4.448656   1.000000
   54        4.545115   1.000000
   55        4.615453   1.000000
   56        4.646630   1.000000
   57        4.683191   1.000000
   58        4.743278   1.000000
   59        4.781779   1.000000
   60        4.850392   1.000000
   61        4.872808   1.000000
   62        4.918248   1.000000
   63        4.950703   1.000000
   64        5.007358   1.000000
   65        5.101663   1.000000
   66        5.158996   1.000000
   67        5.216743   1.000000
   68        5.267483   1.000000
   69        5.301187   1.000000
   70        5.342819   1.000000
   71        5.387490   1.000000
   72        5.409942   1.000000
   73        5.460394   1.000000
   74        5.485056   1.000000
   75        5.522816   1.000000
   76        5.586698   1.000000
   77        5.613935   1.000000
   78        5.710416   1.000000
   79        5.722577   1.000000
   80        5.822486   1.000002
   81        5.872926   1.000009
   82        5.905307   1.000026
   83        5.950171   1.000096
   84        5.975796   1.000193
   85        6.004900   1.000407
   86        6.032749   1.000795
   87        6.082835   1.002373
   88        6.139126   1.006768
   89        6.187207   1.014047
   90        6.224733   1.022031
   91        6.259389   1.029846
   92        6.290002   1.034747
   93        6.310823   1.035285
   94        6.349163   1.025158
   95        6.415504   0.948427
   96        6.464552   0.825149
   97        6.513474   0.648619
   98        6.551345   0.491019
   99        6.571146   0.407849
  100        6.635103   0.171102
  101        6.690774   0.037449
  102        6.759249  -0.029578
  103        6.818141  -0.033588
  104        6.870466  -0.022779
  105        6.946664  -0.008330
  106        7.012130  -0.002547
  107        7.014645  -0.002420
  108        7.088892  -0.000456
  109        7.133711  -0.000143
  110        7.264387  -0.000003
  111        7.428517  -0.000000
  112        7.513845  -0.000000
  113        7.581294  -0.000000
  114        7.629033  -0.000000
  115        7.701650  -0.000000
  116        7.752208  -0.000000
  117        7.821315  -0.000000
  118        7.988860  -0.000000
  119        8.057588  -0.000000
  120        8.129171  -0.000000
 
 -0.6938894E-17  0.1428571E+00  0.1040834E-16  0.5830904E-02
    1      -47.525800   1.000000
    2      -47.484943   1.000000
    3      -47.416692   1.000000
    4      -47.306656   1.000000
    5      -47.249653   1.000000
    6      -47.216860   1.000000
    7      -24.270566   1.000000
    8      -24.098737   1.000000
    9      -23.916743   1.000000
   10      -23.866240   1.000000
   11      -23.681505   1.000000
   12      -23.673446   1.000000
   13      -23.637484   1.000000
   14      -23.593403   1.000000
   15      -23.521897   1.000000
   16      -23.506955   1.000000
   17      -23.446268   1.000000
   18      -23.433759   1.000000
   19      -23.405654   1.000000
   20      -23.376763   1.000000
   21      -23.283109   1.000000
   22      -23.191040   1.000000
   23      -23.054427   1.000000
   24      -22.866168   1.000000
   25       -0.162735   1.000000
   26        1.120462   1.000000
   27        1.540809   1.000000
   28        1.996842   1.000000
   29        2.345432   1.000000
   30        2.502609   1.000000
   31        2.590600   1.000000
   32        2.709697   1.000000
   33        2.756736   1.000000
   34        2.798279   1.000000
   35        2.875336   1.000000
   36        2.928094   1.000000
   37        3.060948   1.000000
   38        3.119780   1.000000
   39        3.178261   1.000000
   40        3.223927   1.000000
   41        3.318992   1.000000
   42        3.371495   1.000000
   43        3.524661   1.000000
   44        3.550540   1.000000
   45        3.649817   1.000000
   46        3.726403   1.000000
   47        3.769544   1.000000
   48        3.840856   1.000000
   49        3.882368   1.000000
   50        3.957572   1.000000
   51        4.014587   1.000000
   52        4.107340   1.000000
   53        4.177148   1.000000
   54        4.252642   1.000000
   55        4.277137   1.000000
   56        4.377960   1.000000
   57        4.453415   1.000000
   58        4.505867   1.000000
   59        4.641712   1.000000
   60        4.701532   1.000000
   61        4.786097   1.000000
   62        4.869857   1.000000
   63        4.915024   1.000000
   64        4.980383   1.000000
   65        5.017742   1.000000
   66        5.073467   1.000000
   67        5.094933   1.000000
   68        5.157636   1.000000
   69        5.197242   1.000000
   70        5.226579   1.000000
   71        5.283820   1.000000
   72        5.319760   1.000000
   73        5.371845   1.000000
   74        5.413336   1.000000
   75        5.489566   1.000000
   76        5.542880   1.000000
   77        5.576538   1.000000
   78        5.730763   1.000000
   79        5.767056   1.000000
   80        5.785587   1.000000
   81        5.884103   1.000013
   82        5.942849   1.000078
   83        6.004367   1.000401
   84        6.022115   1.000619
   85        6.108835   1.003947
   86        6.156237   1.008939
   87        6.187922   1.014183
   88        6.206840   1.018031
   89        6.248831   1.027564
   90        6.313114   1.035138
   91        6.373695   1.007332
   92        6.416191   0.947115
   93        6.449380   0.869665
   94        6.527784   0.590141
   95        6.579465   0.373640
   96        6.603140   0.280790
   97        6.770224  -0.032873
   98        6.845412  -0.028492
   99        6.885170  -0.019439
  100        6.972107  -0.005429
  101        7.120592  -0.000203
  102        7.212549  -0.000014
  103        7.330897  -0.000000
  104        7.425445  -0.000000
  105        7.509176  -0.000000
  106        7.576462  -0.000000
  107        7.693904  -0.000000
  108        7.753376  -0.000000
  109        7.809672  -0.000000
  110        8.009638  -0.000000
  111        8.153052  -0.000000
  112        8.246686  -0.000000
  113        8.289204  -0.000000
  114        8.350693  -0.000000
  115        8.461309  -0.000000
  116        8.525149  -0.000000
  117        8.539794  -0.000000
  118        8.578467  -0.000000
  119        8.644050  -0.000000
  120        8.694241  -0.000000
 
  0.1428571E+00  0.1428571E+00 -0.1387779E-16  0.5830904E-02
    1      -47.521365   1.000000
    2      -47.484528   1.000000
    3      -47.416568   1.000000
    4      -47.306516   1.000000
    5      -47.249373   1.000000
    6      -47.221882   1.000000
    7      -24.212794   1.000000
    8      -24.097707   1.000000
    9      -23.917348   1.000000
   10      -23.866030   1.000000
   11      -23.677147   1.000000
   12      -23.674158   1.000000
   13      -23.639848   1.000000
   14      -23.596021   1.000000
   15      -23.522068   1.000000
   16      -23.510245   1.000000
   17      -23.447999   1.000000
   18      -23.435051   1.000000
   19      -23.410369   1.000000
   20      -23.377828   1.000000
   21      -23.285289   1.000000
   22      -23.187200   1.000000
   23      -23.054882   1.000000
   24      -22.935563   1.000000
   25       -0.068419   1.000000
   26        1.206601   1.000000
   27        1.615808   1.000000
   28        2.277148   1.000000
   29        2.478480   1.000000
   30        2.552732   1.000000
   31        2.661797   1.000000
   32        2.746174   1.000000
   33        2.834478   1.000000
   34        2.856104   1.000000
   35        2.961318   1.000000
   36        3.021282   1.000000
   37        3.065281   1.000000
   38        3.157211   1.000000
   39        3.245721   1.000000
   40        3.322840   1.000000
   41        3.447928   1.000000
   42        3.468637   1.000000
   43        3.565731   1.000000
   44        3.614565   1.000000
   45        3.644224   1.000000
   46        3.718571   1.000000
   47        3.797129   1.000000
   48        3.883536   1.000000
   49        3.946139   1.000000
   50        4.026761   1.000000
   51        4.044576   1.000000
   52        4.162611   1.000000
   53        4.206041   1.000000
   54        4.300074   1.000000
   55        4.333081   1.000000
   56        4.447947   1.000000
   57        4.512435   1.000000
   58        4.617171   1.000000
   59        4.662747   1.000000
   60        4.720331   1.000000
   61        4.780524   1.000000
   62        4.854756   1.000000
   63        4.922810   1.000000
   64        4.977351   1.000000
   65        5.000298   1.000000
   66        5.045614   1.000000
   67        5.082966   1.000000
   68        5.158056   1.000000
   69        5.201578   1.000000
   70        5.240650   1.000000
   71        5.291282   1.000000
   72        5.327114   1.000000
   73        5.346547   1.000000
   74        5.422523   1.000000
   75        5.476228   1.000000
   76        5.569774   1.000000
   77        5.624407   1.000000
   78        5.643080   1.000000
   79        5.722108   1.000000
   80        5.761903   1.000000
   81        5.816825   1.000001
   82        5.891103   1.000017
   83        5.950142   1.000096
   84        6.038718   1.000913
   85        6.062582   1.001552
   86        6.077630   1.002133
   87        6.181968   1.013076
   88        6.214213   1.019647
   89        6.259980   1.029968
   90        6.313401   1.035117
   91        6.419260   0.941116
   92        6.445319   0.880629
   93        6.537008   0.551577
   94        6.560788   0.451151
   95        6.586883   0.343738
   96        6.666088   0.087142
   97        6.767700  -0.032249
   98        6.807835  -0.034803
   99        6.873928  -0.021981
  100        6.922041  -0.012092
  101        6.953678  -0.007434
  102        7.060914  -0.000888
  103        7.195671  -0.000024
  104        7.295983  -0.000001
  105        7.330729  -0.000000
  106        7.384005  -0.000000
  107        7.434894  -0.000000
  108        7.539475  -0.000000
  109        7.705218  -0.000000
  110        7.867581  -0.000000
  111        8.027598  -0.000000
  112        8.140563  -0.000000
  113        8.264000  -0.000000
  114        8.342702  -0.000000
  115        8.396361  -0.000000
  116        8.499318  -0.000000
  117        8.537263  -0.000000
  118        8.608191  -0.000000
  119        8.698795  -0.000000
  120        8.725811  -0.000000
 
  0.2857143E+00  0.1428571E+00  0.2775558E-16  0.5830904E-02
    1      -47.511109   1.000000
    2      -47.483089   1.000000
    3      -47.415912   1.000000
    4      -47.306249   1.000000
    5      -47.249293   1.000000
    6      -47.233740   1.000000
    7      -24.115176   1.000000
    8      -24.032567   1.000000
    9      -23.908045   1.000000
   10      -23.859874   1.000000
   11      -23.678458   1.000000
   12      -23.664308   1.000000
   13      -23.645123   1.000000
   14      -23.601707   1.000000
   15      -23.522621   1.000000
   16      -23.517663   1.000000
   17      -23.452383   1.000000
   18      -23.437582   1.000000
   19      -23.421671   1.000000
   20      -23.381338   1.000000
   21      -23.293697   1.000000
   22      -23.193232   1.000000
   23      -23.128250   1.000000
   24      -23.049011   1.000000
   25        0.332007   1.000000
   26        1.532828   1.000000
   27        1.894728   1.000000
   28        2.475596   1.000000
   29        2.571308   1.000000
   30        2.734346   1.000000
   31        2.871095   1.000000
   32        2.963892   1.000000
   33        3.061286   1.000000
   34        3.089644   1.000000
   35        3.144479   1.000000
   36        3.231490   1.000000
   37        3.320759   1.000000
   38        3.346724   1.000000
   39        3.401613   1.000000
   40        3.519874   1.000000
   41        3.599369   1.000000
   42        3.654818   1.000000
   43        3.682338   1.000000
   44        3.723833   1.000000
   45        3.814728   1.000000
   46        3.856978   1.000000
   47        3.880952   1.000000
   48        3.947345   1.000000
   49        4.048341   1.000000
   50        4.110875   1.000000
   51        4.209602   1.000000
   52        4.256041   1.000000
   53        4.338524   1.000000
   54        4.379652   1.000000
   55        4.432195   1.000000
   56        4.512671   1.000000
   57        4.602304   1.000000
   58        4.683917   1.000000
   59        4.707821   1.000000
   60        4.824547   1.000000
   61        4.868330   1.000000
   62        4.916990   1.000000
   63        4.939259   1.000000
   64        5.024743   1.000000
   65        5.074781   1.000000
   66        5.108420   1.000000
   67        5.135528   1.000000
   68        5.177614   1.000000
   69        5.221011   1.000000
   70        5.289734   1.000000
   71        5.341848   1.000000
   72        5.376337   1.000000
   73        5.438268   1.000000
   74        5.487736   1.000000
   75        5.536528   1.000000
   76        5.603575   1.000000
   77        5.653863   1.000000
   78        5.692047   1.000000
   79        5.729867   1.000000
   80        5.800177   1.000001
   81        5.831560   1.000002
   82        5.893457   1.000018
   83        5.964605   1.000143
   84        5.991048   1.000287
   85        6.044402   1.001039
   86        6.086479   1.002555
   87        6.133587   1.006160
   88        6.154777   1.008736
   89        6.213408   1.019468
   90        6.232575   1.023842
   91        6.268295   1.031601
   92        6.320657   1.034305
   93        6.396379   0.980319
   94        6.440260   0.893711
   95        6.481080   0.770618
   96        6.510760   0.659460
   97        6.545432   0.516037
   98        6.591721   0.324598
   99        6.706840   0.013064
  100        6.758730  -0.029383
  101        6.798272  -0.035395
  102        6.834768  -0.030715
  103        6.925984  -0.011424
  104        6.953791  -0.007421
  105        7.027323  -0.001862
  106        7.068379  -0.000747
  107        7.152836  -0.000084
  108        7.349344  -0.000000
  109        7.484804  -0.000000
  110        7.544267  -0.000000
  111        7.635395  -0.000000
  112        7.867025  -0.000000
  113        7.986184  -0.000000
  114        8.031636  -0.000000
  115        8.130478  -0.000000
  116        8.246033  -0.000000
  117        8.266175  -0.000000
  118        8.364004  -0.000000
  119        8.384984  -0.000000
  120        8.469134  -0.000000
 
  0.4285714E+00  0.1428571E+00 -0.2081668E-16  0.5830904E-02
    1      -47.502878   1.000000
    2      -47.481111   1.000000
    3      -47.415207   1.000000
    4      -47.306081   1.000000
    5      -47.249661   1.000000
    6      -47.243777   1.000000
    7      -24.107227   1.000000
    8      -23.926320   1.000000
    9      -23.869004   1.000000
   10      -23.764763   1.000000
   11      -23.681274   1.000000
   12      -23.654805   1.000000
   13      -23.649213   1.000000
   14      -23.605983   1.000000
   15      -23.528372   1.000000
   16      -23.522292   1.000000
   17      -23.456634   1.000000
   18      -23.441961   1.000000
   19      -23.432397   1.000000
   20      -23.410907   1.000000
   21      -23.373313   1.000000
   22      -23.270011   1.000000
   23      -23.201341   1.000000
   24      -23.052180   1.000000
   25        0.973085   1.000000
   26        1.823678   1.000000
   27        2.160238   1.000000
   28        2.374220   1.000000
   29        2.564213   1.000000
   30        2.765976   1.000000
   31        2.971856   1.000000
   32        3.187678   1.000000
   33        3.221104   1.000000
   34        3.291708   1.000000
   35        3.394195   1.000000
   36        3.422143   1.000000
   37        3.461454   1.000000
   38        3.574203   1.000000
   39        3.637169   1.000000
   40        3.693111   1.000000
   41        3.737930   1.000000
   42        3.757199   1.000000
   43        3.820931   1.000000
   44        3.868386   1.000000
   45        3.945616   1.000000
   46        3.999203   1.000000
   47        4.049188   1.000000