       N       E                     dE             d eps       ncg     rms          rms(c)
DAV:   1    -0.421388661669E+04   -0.42139E+04   -0.16306E+05 58800   0.198E+03
DAV:   2    -0.100567722755E+05   -0.58429E+04   -0.54417E+04 69240   0.124E+03
DAV:   3    -0.109769848398E+05   -0.92021E+03   -0.89348E+03 82560   0.566E+02
DAV:   4    -0.112248375147E+05   -0.24785E+03   -0.22300E+03 82560   0.259E+02
DAV:   5    -0.113729300918E+05   -0.14809E+03   -0.13463E+03 82560   0.176E+02    0.549E+03
DAV:   6    -0.113074695871E+04    0.10242E+05   -0.23251E+04 65904   0.595E+02    0.254E+03
DAV:   7    -0.715638676314E+03    0.41511E+03   -0.14535E+04 72240   0.536E+02    0.197E+03
DAV:   8    -0.583212917984E+03    0.13243E+03   -0.48912E+03 72816   0.403E+02    0.176E+03
DAV:   9    -0.520585225616E+03    0.62628E+02   -0.84319E+02 71532   0.930E+01    0.167E+03
DAV:  10    -0.555908236657E+03   -0.35323E+02   -0.18838E+02 82176   0.399E+01    0.168E+03
DAV:  11    -0.625411655184E+03   -0.69503E+02   -0.54209E+02 74304   0.913E+01    0.154E+03
DAV:  12    -0.867761899444E+03   -0.24235E+03   -0.11913E+03 76344   0.162E+02    0.102E+03
DAV:  13    -0.804791001658E+03    0.62971E+02   -0.53167E+03 69420   0.506E+02    0.662E+02
DAV:  14    -0.876631919028E+03   -0.71841E+02   -0.93186E+02 72504   0.136E+02    0.444E+02
DAV:  15    -0.706140651851E+03    0.17049E+03   -0.13689E+03 67344   0.178E+02    0.303E+02
DAV:  16    -0.627808760442E+03    0.78332E+02   -0.78991E+02 78672   0.996E+01    0.258E+02
DAV:  17    -0.524242699649E+03    0.10357E+03   -0.38458E+02 69144   0.857E+01    0.188E+02
DAV:  18    -0.492099607291E+03    0.32143E+02   -0.94614E+01 81024   0.310E+01    0.176E+02
DAV:  19    -0.467758905722E+03    0.24341E+02   -0.27976E+01 74988   0.192E+01    0.167E+02
DAV:  20    -0.429611008668E+03    0.38148E+02   -0.82697E+01 74664   0.462E+01    0.156E+02
DAV:  21    -0.373465704060E+03    0.56145E+02   -0.59279E+01 78204   0.310E+01    0.129E+02
DAV:  22    -0.348640461149E+03    0.24825E+02   -0.30671E+01 76524   0.165E+01    0.117E+02
DAV:  23    -0.326345727161E+03    0.22295E+02   -0.74149E+01 76092   0.359E+01    0.859E+01
DAV:  24    -0.316959530821E+03    0.93862E+01   -0.48216E+01 79692   0.225E+01    0.685E+01
DAV:  25    -0.311709600134E+03    0.52499E+01   -0.25005E+01 76200   0.215E+01    0.574E+01
DAV:  26    -0.308856473675E+03    0.28531E+01   -0.20436E+01 76668   0.201E+01    0.463E+01
DAV:  27    -0.308687600032E+03    0.16887E+00   -0.17967E+01 76200   0.173E+01    0.436E+01
DAV:  28    -0.306721612662E+03    0.19660E+01   -0.77282E+00 69288   0.911E+00    0.374E+01
DAV:  29    -0.305304893400E+03    0.14167E+01   -0.67430E+00 69492   0.110E+01    0.297E+01
DAV:  30    -0.305029055394E+03    0.27584E+00   -0.13811E+00 71112   0.543E+00    0.274E+01
DAV:  31    -0.304532609093E+03    0.49645E+00   -0.16386E+00 69732   0.516E+00    0.245E+01
DAV:  32    -0.304166389645E+03    0.36622E+00   -0.15431E+00 67956   0.538E+00    0.202E+01
DAV:  33    -0.304003385061E+03    0.16300E+00   -0.11894E+00 71472   0.422E+00    0.161E+01
DAV:  34    -0.304229410364E+03   -0.22603E+00   -0.15752E+00 73368   0.499E+00    0.134E+01
DAV:  35    -0.304065659650E+03    0.16375E+00   -0.74287E-01 78204   0.304E+00    0.113E+01
DAV:  36    -0.303862054108E+03    0.20361E+00   -0.38202E-01 73584   0.234E+00    0.939E+00
DAV:  37    -0.303780197148E+03    0.81857E-01   -0.22352E-01 70752   0.154E+00    0.769E+00
DAV:  38    -0.303785973322E+03   -0.57762E-02   -0.10725E-01 71724   0.114E+00    0.742E+00
DAV:  39    -0.303710426823E+03    0.75546E-01   -0.11277E-01 72204   0.136E+00    0.679E+00
DAV:  40    -0.303691500000E+03    0.18927E-01   -0.27760E-02 72816   0.546E-01    0.640E+00
DAV:  41    -0.303676552038E+03    0.14948E-01   -0.38586E-02 66948   0.834E-01    0.592E+00
DAV:  42    -0.303656572813E+03    0.19979E-01   -0.51951E-02 75408   0.843E-01    0.578E+00
DAV:  43    -0.303649274615E+03    0.72982E-02   -0.19066E-02 73908   0.551E-01    0.554E+00
DAV:  44    -0.303648504148E+03    0.77047E-03   -0.39717E-03 66720   0.234E-01    0.531E+00
DAV:  45    -0.303647076694E+03    0.14275E-02   -0.44222E-03 66108   0.270E-01    0.515E+00
DAV:  46    -0.303644907211E+03    0.21695E-02   -0.50484E-03 66432   0.276E-01    0.503E+00
DAV:  47    -0.303644379519E+03    0.52769E-03   -0.17023E-03 64392   0.151E-01    0.498E+00
DAV:  48    -0.303643964313E+03    0.41521E-03   -0.99397E-04 52560   0.154E-01    0.490E+00
DAV:  49    -0.303643634538E+03    0.32978E-03   -0.47989E-04 41568   0.111E-01    0.477E+00
DAV:  50    -0.303643439750E+03    0.19479E-03   -0.48747E-04 36960   0.817E-02    0.468E+00
DAV:  51    -0.303643347260E+03    0.92490E-04   -0.28160E-04 38700   0.633E-02
   1 F= -.30364335E+03 E0= -.30363602E+03  d E =-.303643E+03
       N       E                     dE             d eps       ncg     rms          rms(c)
DAV:   1    -0.304224790803E+03   -0.58135E+00   -0.80581E+01 41280   0.334E+01    0.747E+00
DAV:   2    -0.305596690506E+03   -0.13719E+01   -0.15506E+01 74316   0.224E+01    0.993E+00
DAV:   3    -0.304524253475E+03    0.10724E+01   -0.10067E+01 73596   0.134E+01    0.604E+00
DAV:   4    -0.304465411367E+03    0.58842E-01   -0.48328E+00 70092   0.105E+01    0.581E+00
DAV:   5    -0.304268689851E+03    0.19672E+00   -0.31685E+00 68412   0.873E+00    0.392E+00
DAV:   6    -0.304150202271E+03    0.11849E+00   -0.13257E+00 72492   0.520E+00    0.234E+00
DAV:   7    -0.304161535825E+03   -0.11334E-01   -0.91760E-01 72876   0.407E+00    0.259E+00
DAV:   8    -0.304133867605E+03    0.27668E-01   -0.58952E-01 72804   0.337E+00    0.178E+00
DAV:   9    -0.304110762253E+03    0.23105E-01   -0.21785E-01 72264   0.203E+00    0.107E+00
DAV:  10    -0.304106697421E+03    0.40648E-02   -0.91553E-02 69480   0.124E+00    0.835E-01
DAV:  11    -0.304110294642E+03   -0.35972E-02   -0.72712E-02 66060   0.116E+00    0.853E-01
DAV:  12    -0.304109558376E+03    0.73627E-03   -0.66957E-02 70572   0.113E+00    0.569E-01
DAV:  13    -0.304107935517E+03    0.16229E-02   -0.39446E-02 65460   0.879E-01    0.465E-01
DAV:  14    -0.304106013396E+03    0.19221E-02   -0.20635E-02 63216   0.668E-01    0.191E-01
DAV:  15    -0.304105660803E+03    0.35259E-03   -0.42710E-03 62712   0.273E-01    0.906E-02
DAV:  16    -0.304105622162E+03    0.38641E-04   -0.15156E-03 60180   0.144E-01    0.789E-02
DAV:  17    -0.304105553877E+03    0.68284E-04   -0.29469E-04 34344   0.932E-02
   2 F= -.30410555E+03 E0= -.30409784E+03  d E =-.462207E+00
       N       E                     dE             d eps       ncg     rms          rms(c)
DAV:   1    -0.304147760203E+03   -0.42138E-01   -0.10920E+01 41280   0.124E+01    0.260E+00
DAV:   2    -0.304319483330E+03   -0.17172E+00   -0.20124E+00 73056   0.809E+00    0.353E+00
DAV:   3    -0.304193002450E+03    0.12648E+00   -0.13688E+00 73116   0.530E+00    0.200E+00
DAV:   4    -0.304181043668E+03    0.11959E-01   -0.58628E-01 70680   0.352E+00    0.192E+00
DAV:   5    -0.304156938315E+03    0.24105E-01   -0.38354E-01 67728   0.304E+00    0.131E+00
DAV:   6    -0.304140629303E+03    0.16309E-01   -0.14720E-01 70644   0.179E+00    0.631E-01
DAV:   7    -0.304141353666E+03   -0.72436E-03   -0.78929E-02 74040   0.120E+00    0.744E-01
DAV:   8    -0.304138890059E+03    0.24636E-02   -0.49130E-02 69540   0.990E-01    0.497E-01
DAV:   9    -0.304137111855E+03    0.17782E-02   -0.15170E-02 62736   0.555E-01    0.290E-01
DAV:  10    -0.304136869965E+03    0.24189E-03   -0.57542E-03 65676   0.321E-01    0.245E-01
DAV:  11    -0.304137040797E+03   -0.17083E-03   -0.34199E-03 61008   0.258E-01    0.221E-01
DAV:  12    -0.304137195537E+03   -0.15474E-03   -0.31720E-03 62580   0.255E-01    0.151E-01
DAV:  13    -0.304137339793E+03   -0.14426E-03   -0.32736E-03 65904   0.265E-01    0.148E-01
DAV:  14    -0.304137186895E+03    0.15290E-03   -0.23579E-03 58176   0.242E-01    0.789E-02
DAV:  15    -0.304137111973E+03    0.74922E-04   -0.44298E-04 40584   0.119E-01
   3 F= -.30413711E+03 E0= -.30412961E+03  d E =-.493765E+00
       N       E                     dE             d eps       ncg     rms          rms(c)
DAV:   1    -0.304375270649E+03   -0.23808E+00   -0.31002E+01 41280   0.200E+01    0.381E+00
DAV:   2    -0.304795051424E+03   -0.41978E+00   -0.48062E+00 71628   0.108E+01    0.547E+00
DAV:   3    -0.304494007054E+03    0.30104E+00   -0.34806E+00 74364   0.824E+00    0.305E+00
DAV:   4    -0.304489764860E+03    0.42422E-02   -0.11105E+00 68484   0.533E+00    0.297E+00
DAV:   5    -0.304402751947E+03    0.87013E-01   -0.69163E-01 69636   0.415E+00    0.126E+00
DAV:   6    -0.304387756365E+03    0.14996E-01   -0.21611E-01 71964   0.208E+00    0.846E-01
DAV:   7    -0.304385516757E+03    0.22396E-02   -0.11402E-01 77064   0.139E+00    0.807E-01
DAV:   8    -0.304382301387E+03    0.32154E-02   -0.62580E-02 69792   0.118E+00    0.540E-01
DAV:   9    -0.304380194727E+03    0.21067E-02   -0.15815E-02 63780   0.589E-01    0.298E-01
DAV:  10    -0.304380402022E+03   -0.20730E-03   -0.62701E-03 65592   0.270E-01    0.260E-01
DAV:  11    -0.304380890386E+03   -0.48836E-03   -0.55062E-03 61896   0.320E-01    0.242E-01
DAV:  12    -0.304381147927E+03   -0.25754E-03   -0.66669E-03 65208   0.378E-01    0.216E-01
DAV:  13    -0.304380786112E+03    0.36181E-03   -0.35965E-03 65664   0.282E-01    0.105E-01
DAV:  14    -0.304380740034E+03    0.46078E-04   -0.21387E-03 62688   0.203E-01    0.833E-02
DAV:  15    -0.304380692097E+03    0.47937E-04   -0.82587E-04 48960   0.155E-01
   4 F= -.30438069E+03 E0= -.30437383E+03  d E =-.243580E+00
       N       E                     dE             d eps       ncg     rms          rms(c)
DAV:   1    -0.304436819520E+03   -0.56079E-01   -0.22557E+01 41280   0.170E+01    0.317E+00
DAV:   2    -0.304739007256E+03   -0.30219E+00   -0.34687E+00 71616   0.920E+00    0.462E+00
DAV:   3    -0.304518913545E+03    0.22009E+00   -0.24759E+00 74364   0.702E+00    0.248E+00
DAV:   4    -0.304511479124E+03    0.74344E-02   -0.72245E-01 68772   0.431E+00    0.237E+00
DAV:   5    -0.304456001431E+03    0.55478E-01   -0.46366E-01 70008   0.341E+00    0.104E+00
DAV:   6    -0.304445629494E+03    0.10372E-01   -0.14174E-01 71820   0.171E+00    0.681E-01
DAV:   7    -0.304444164589E+03    0.14649E-02   -0.75029E-02 77592   0.111E+00    0.638E-01
DAV:   8    -0.304442460312E+03    0.17043E-02   -0.41498E-02 68532   0.959E-01    0.463E-01
DAV:   9    -0.304440894668E+03    0.15656E-02   -0.11374E-02 59904   0.501E-01    0.247E-01
DAV:  10    -0.304441100958E+03   -0.20629E-03   -0.42914E-03 64164   0.228E-01    0.218E-01
DAV:  11    -0.304441451711E+03   -0.35075E-03   -0.42740E-03 61512   0.288E-01    0.195E-01
DAV:  12    -0.304441601971E+03   -0.15026E-03   -0.52847E-03 64104   0.335E-01    0.173E-01
DAV:  13    -0.304441364763E+03    0.23721E-03   -0.26163E-03 62388   0.240E-01    0.918E-02
DAV:  14    -0.304441341585E+03    0.23178E-04   -0.14175E-03 59796   0.172E-01    0.762E-02
DAV:  15    -0.304441289620E+03    0.51965E-04   -0.46924E-04 39432   0.132E-01
   5 F= -.30444129E+03 E0= -.30443523E+03  d E =-.304178E+00
       N       E                     dE             d eps       ncg     rms          rms(c)
DAV:   1    -0.304469797144E+03   -0.28456E-01   -0.23246E+00 41304   0.498E+00    0.550E-01
DAV:   2    -0.304490541199E+03   -0.20744E-01   -0.22471E-01 69816   0.254E+00    0.918E-01
DAV:   3    -0.304484899608E+03    0.56416E-02   -0.88456E-02 68832   0.153E+00    0.532E-01
DAV:   4    -0.304483213639E+03    0.16860E-02   -0.23869E-02 66576   0.737E-01    0.340E-01
DAV:   5    -0.304482557412E+03    0.65623E-03   -0.12766E-02 61800   0.527E-01    0.315E-01
DAV:   6    -0.304481987666E+03    0.56975E-03   -0.87076E-03 63948   0.412E-01    0.195E-01
DAV:   7    -0.304482145474E+03   -0.15781E-03   -0.58569E-03 66156   0.356E-01    0.222E-01
DAV:   8    -0.304481711390E+03    0.43408E-03   -0.42303E-03 61392   0.302E-01    0.113E-01
DAV:   9    -0.304481569237E+03    0.14215E-03   -0.97612E-04 49932   0.159E-01    0.637E-02
DAV:  10    -0.304481531943E+03    0.37294E-04   -0.21818E-04 28464   0.988E-02
   6 F= -.30448153E+03 E0= -.30447532E+03  d E =-.402423E-01
       N       E                     dE             d eps       ncg     rms          rms(c)
DAV:   1    -0.304447239306E+03    0.34330E-01   -0.17246E+01 41868   0.136E+01    0.143E+00
DAV:   2    -0.304588923800E+03   -0.14168E+00   -0.15493E+00 69576   0.645E+00    0.239E+00
DAV:   3    -0.304551402676E+03    0.37521E-01   -0.60471E-01 69468   0.400E+00    0.138E+00
DAV:   4    -0.304540682883E+03    0.10720E-01   -0.16659E-01 72024   0.194E+00    0.905E-01
DAV:   5    -0.304535438302E+03    0.52446E-02   -0.89441E-02 68184   0.136E+00    0.817E-01
DAV:   6    -0.304532258387E+03    0.31799E-02   -0.65318E-02 69756   0.112E+00    0.554E-01
DAV:   7    -0.304532642302E+03   -0.38392E-03   -0.44082E-02 72912   0.965E-01    0.585E-01
DAV:   8    -0.304529683464E+03    0.29588E-02   -0.29588E-02 73464   0.787E-01    0.292E-01
DAV:   9    -0.304528752024E+03    0.93144E-03   -0.67289E-03 63348   0.375E-01    0.158E-01
DAV:  10    -0.304528640565E+03    0.11146E-03   -0.22698E-03 62412   0.200E-01    0.111E-01
DAV:  11    -0.304528612757E+03    0.27808E-04   -0.68247E-04 49212   0.117E-01
   7 F= -.30452861E+03 E0= -.30452207E+03  d E =-.873231E-01
       N       E                     dE             d eps       ncg     rms          rms(c)
DAV:   1    -0.304589960650E+03   -0.61320E-01   -0.42781E+00 54180   0.886E+00    0.205E+00
DAV:   2    -0.304608068072E+03   -0.18107E-01   -0.82094E-01 75600   0.409E+00    0.180E+00
DAV:   3    -0.304591508242E+03    0.16560E-01   -0.67412E-01 72180   0.332E+00    0.170E+00
DAV:   4    -0.304569549236E+03    0.21959E-01   -0.28312E-01 69840   0.254E+00    0.122E+00
DAV:   5    -0.304559874188E+03    0.96750E-02   -0.20282E-01 72144   0.197E+00    0.984E-01
DAV:   6    -0.304553443035E+03    0.64312E-02   -0.11576E-01 67188   0.153E+00    0.686E-01
DAV:   7    -0.304550044393E+03    0.33986E-02   -0.52618E-02 70668   0.102E+00    0.404E-01
DAV:   8    -0.304549441514E+03    0.60288E-03   -0.22663E-02 66048   0.674E-01    0.304E-01
DAV:   9    -0.304548812543E+03    0.62897E-03   -0.67256E-03 59424   0.398E-01    0.174E-01
DAV:  10    -0.304548699901E+03    0.11264E-03   -0.12953E-03 57360   0.169E-01    0.136E-01
DAV:  11    -0.304548719215E+03   -0.19314E-04   -0.21277E-04 27792   0.941E-02
   8 F= -.30454872E+03 E0= -.30454242E+03  d E =-.201065E-01
       N       E                     dE             d eps       ncg     rms          rms(c)
DAV:   1    -0.304548956461E+03   -0.25656E-03   -0.25934E-02 58800   0.689E-01    0.162E-01
DAV:   2    -0.304549489121E+03   -0.53266E-03   -0.67518E-03 71028   0.418E-01    0.225E-01
DAV:   3    -0.304549084475E+03    0.40465E-03   -0.63691E-03 60864   0.359E-01    0.149E-01
DAV:   4    -0.304549037772E+03    0.46703E-04   -0.20300E-03 58548   0.210E-01    0.109E-01
DAV:   5    -0.304548985355E+03    0.52417E-04   -0.12295E-03 53160   0.170E-01    0.822E-02
DAV:   6    -0.304548949335E+03    0.36021E-04   -0.51727E-04 40260   0.136E-01
   9 F= -.30454895E+03 E0= -.30454268E+03  d E =-.203366E-01
       N       E                     dE             d eps       ncg     rms          rms(c)
DAV:   1    -0.304557459571E+03   -0.84742E-02   -0.23474E+00 41280   0.487E+00    0.516E-01
DAV:   2    -0.304575627000E+03   -0.18167E-01   -0.20231E-01 69912   0.224E+00    0.862E-01
DAV:   3    -0.304569245933E+03    0.63811E-02   -0.80827E-02 70068   0.142E+00    0.462E-01
DAV:   4    -0.304567477776E+03    0.17682E-02   -0.16496E-02 66540   0.612E-01    0.273E-01
DAV:   5    -0.304566976427E+03    0.50135E-03   -0.90729E-03 65004   0.401E-01    0.235E-01
DAV:   6    -0.304566769108E+03    0.20732E-03   -0.70406E-03 59616   0.395E-01    0.219E-01
DAV:   7    -0.304566712679E+03    0.56429E-04   -0.61039E-03 60288   0.364E-01    0.194E-01
DAV:   8    -0.304566401088E+03    0.31159E-03   -0.35805E-03 59436   0.290E-01    0.124E-01
DAV:   9    -0.304566232088E+03    0.16900E-03   -0.12291E-03 54252   0.182E-01    0.448E-02
DAV:  10    -0.304566208479E+03    0.23609E-04   -0.19634E-04 27816   0.976E-02
  10 F= -.30456621E+03 E0= -.30456035E+03  d E =-.172591E-01
       N       E                     dE             d eps       ncg     rms          rms(c)
DAV:   1    -0.304547096038E+03    0.19136E-01   -0.78809E+00 41280   0.895E+00    0.934E-01
DAV:   2    -0.304607909235E+03   -0.60813E-01   -0.66893E-01 69984   0.407E+00    0.155E+00
DAV:   3    -0.304586439882E+03    0.21469E-01   -0.26338E-01 70572   0.261E+00    0.797E-01
DAV:   4    -0.304581111539E+03    0.53283E-02   -0.51323E-02 71280   0.110E+00    0.487E-01
DAV:   5    -0.304579530179E+03    0.15814E-02   -0.29626E-02 71244   0.745E-01    0.420E-01
DAV:   6    -0.304578691181E+03    0.83900E-03   -0.21487E-02 67200   0.687E-01    0.382E-01
DAV:   7    -0.304578612377E+03    0.78804E-04   -0.19289E-02 66180   0.620E-01    0.357E-01
DAV:   8    -0.304577569419E+03    0.10430E-02   -0.11268E-02 63816   0.512E-01    0.207E-01
DAV:   9    -0.304577067738E+03    0.50168E-03   -0.36414E-03 60276   0.282E-01    0.785E-02
DAV:  10    -0.304577045049E+03    0.22689E-04   -0.87669E-04 52200   0.138E-01
  11 F= -.30457705E+03 E0= -.30457203E+03  d E =-.280957E-01
       N       E                     dE             d eps       ncg     rms          rms(c)
DAV:   1    -0.304580617328E+03   -0.35496E-02   -0.10120E+00 41340   0.362E+00    0.639E-01
DAV:   2    -0.304592841571E+03   -0.12224E-01   -0.14780E-01 70548   0.193E+00    0.983E-01
DAV:   3    -0.304585375933E+03    0.74656E-02   -0.95075E-02 69660   0.154E+00    0.532E-01
DAV:   4    -0.304583851676E+03    0.15243E-02   -0.28167E-02 66612   0.747E-01    0.392E-01
DAV:   5    -0.304582525705E+03    0.13260E-02   -0.19474E-02 66384   0.610E-01    0.267E-01
DAV:   6    -0.304581948563E+03    0.57714E-03   -0.84208E-03 69072   0.441E-01    0.168E-01
DAV:   7    -0.304581757861E+03    0.19070E-03   -0.35658E-03 61932   0.268E-01    0.127E-01
DAV:   8    -0.304581691921E+03    0.65940E-04   -0.17002E-03 59364   0.202E-01    0.930E-02
DAV:   9    -0.304581623320E+03    0.68600E-04   -0.36221E-04 37320   0.117E-01
  12 F= -.30458162E+03 E0= -.30457667E+03  d E =-.457827E-02
       N       E                     dE             d eps       ncg     rms          rms(c)
DAV:   1    -0.304581855723E+03   -0.16380E-03   -0.12425E-01 41868   0.127E+00    0.218E-01
DAV:   2    -0.304583371873E+03   -0.15161E-02   -0.17786E-02 70548   0.671E-01    0.344E-01
DAV:   3    -0.304582366175E+03    0.10057E-02   -0.11658E-02 68016   0.533E-01    0.180E-01
DAV:   4    -0.304582281061E+03    0.85115E-04   -0.36753E-03 61584   0.276E-01    0.158E-01
DAV:   5    -0.304582019027E+03    0.26203E-03   -0.22855E-03 59172   0.218E-01    0.770E-02
DAV:   6    -0.304581981348E+03    0.37679E-04   -0.75928E-04 48540   0.148E-01
  13 F= -.30458198E+03 E0= -.30457706E+03  d E =-.493630E-02
       N       E                     dE             d eps       ncg     rms          rms(c)
DAV:   1    -0.304587768004E+03   -0.57490E-02   -0.10916E+00 41748   0.418E+00    0.907E-01
DAV:   2    -0.304600725628E+03   -0.12958E-01   -0.19792E-01 71436   0.239E+00    0.104E+00
DAV:   3    -0.304595754661E+03    0.49710E-02   -0.16832E-01 69612   0.204E+00    0.903E-01
DAV:   4    -0.304590643955E+03    0.51107E-02   -0.75701E-02 68256   0.128E+00    0.550E-01
DAV:   5    -0.304587826640E+03    0.28173E-02   -0.36564E-02 70320   0.811E-01    0.410E-01
DAV:   6    -0.304586358958E+03    0.14677E-02   -0.19800E-02 68280   0.623E-01    0.228E-01
DAV:   7    -0.304586043639E+03    0.31532E-03   -0.71040E-03 67620   0.371E-01    0.164E-01
DAV:   8    -0.304585918911E+03    0.12473E-03   -0.32125E-03 64920   0.231E-01    0.112E-01
DAV:   9    -0.304585823385E+03    0.95526E-04   -0.10144E-03 55560   0.133E-01    0.757E-02
DAV:  10    -0.304585832563E+03   -0.91775E-05   -0.53624E-04 45420   0.118E-01
  14 F= -.30458583E+03 E0= -.30458093E+03  d E =-.385121E-02
       N       E                     dE             d eps       ncg     rms          rms(c)
DAV:   1    -0.304585871037E+03   -0.47652E-04   -0.28932E-02 44592   0.678E-01    0.143E-01
DAV:   2    -0.304586259315E+03   -0.38828E-03   -0.55143E-03 71256   0.397E-01    0.189E-01
DAV:   3    -0.304586013637E+03    0.24568E-03   -0.48922E-03 61992   0.340E-01    0.142E-01
DAV:   4    -0.304585905672E+03    0.10796E-03   -0.19805E-03 58044   0.211E-01    0.935E-02
DAV:   5    -0.304585830936E+03    0.74736E-04   -0.92629E-04 50928   0.144E-01
  15 F= -.30458583E+03 E0= -.30458093E+03  d E =-.384959E-02
       N       E                     dE             d eps       ncg     rms          rms(c)
DAV:   1    -0.304586213362E+03   -0.30769E-03   -0.40755E-01 41280   0.201E+00    0.184E-01
DAV:   2    -0.304589921799E+03   -0.37084E-02   -0.33598E-02 69324   0.100E+00    0.420E-01
DAV:   3    -0.304588123179E+03    0.17986E-02   -0.13044E-02 68616   0.598E-01    0.147E-01
DAV:   4    -0.304588068527E+03    0.54653E-04   -0.28912E-03 61932   0.241E-01    0.140E-01
DAV:   5    -0.304587899427E+03    0.16910E-03   -0.13554E-03 55728   0.169E-01    0.859E-02
DAV:   6    -0.304587900529E+03   -0.11014E-05   -0.83435E-04 49872   0.147E-01
  16 F= -.30458790E+03 E0= -.30458304E+03  d E =-.206959E-02
       N       E                     dE             d eps       ncg     rms          rms(c)
DAV:   1    -0.304576818386E+03    0.11081E-01   -0.30382E+00 41280   0.549E+00    0.519E-01
DAV:   2    -0.304607742148E+03   -0.30924E-01   -0.26793E-01 70092   0.278E+00    0.125E+00
DAV:   3    -0.304590585420E+03    0.17157E-01   -0.10896E-01 70824   0.171E+00    0.392E-01
DAV:   4    -0.304590563677E+03    0.21742E-04   -0.25007E-02 65664   0.696E-01    0.413E-01
DAV:   5    -0.304588892808E+03    0.16709E-02   -0.12161E-02 61164   0.488E-01    0.216E-01
DAV:   6    -0.304588972704E+03   -0.79897E-04   -0.64288E-03 60120   0.374E-01    0.230E-01
DAV:   7    -0.304588660945E+03    0.31176E-03   -0.53309E-03 66828   0.336E-01    0.172E-01
DAV:   8    -0.304588320301E+03    0.34064E-03   -0.28081E-03 62700   0.223E-01    0.839E-02
DAV:   9    -0.304588247929E+03    0.72372E-04   -0.74819E-04 48324   0.139E-01
  17 F= -.30458825E+03 E0= -.30458350E+03  d E =-.241699E-02
       N       E                     dE             d eps       ncg     rms          rms(c)
DAV:   1    -0.304587095048E+03    0.12253E-02   -0.47250E-01 41280   0.217E+00    0.208E-01
DAV:   2    -0.304592272151E+03   -0.51771E-02   -0.43682E-02 70236   0.113E+00    0.521E-01
DAV:   3    -0.304589277102E+03    0.29950E-02   -0.19004E-02 70320   0.719E-01    0.158E-01
DAV:   4    -0.304589231210E+03    0.45893E-04   -0.41482E-03 62604   0.269E-01    0.147E-01
DAV:   5    -0.304589009838E+03    0.22137E-03   -0.18418E-03 56892   0.197E-01    0.915E-02
DAV:   6    -0.304588977440E+03    0.32397E-04   -0.89087E-04 50208   0.153E-01
  18 F= -.30458898E+03 E0= -.30458420E+03  d E =-.314650E-02
       N       E                     dE             d eps       ncg     rms          rms(c)
DAV:   1    -0.304588737964E+03    0.27187E-03   -0.48527E-01 41280   0.244E+00    0.338E-01
DAV:   2    -0.304593012000E+03   -0.42740E-02   -0.54974E-02 70392   0.122E+00    0.440E-01
DAV:   3    -0.304591693499E+03    0.13185E-02   -0.26314E-02 71172   0.800E-01    0.301E-01
DAV:   4    -0.304591024662E+03    0.66884E-03   -0.99129E-03 62496   0.462E-01    0.201E-01
DAV:   5    -0.304590718552E+03    0.30611E-03   -0.50666E-03 61776   0.326E-01    0.160E-01
DAV:   6    -0.304590582925E+03    0.13563E-03   -0.32071E-03 61524   0.257E-01    0.123E-01
DAV:   7    -0.304590495850E+03    0.87075E-04   -0.18753E-03 59076   0.207E-01    0.908E-02
DAV:   8    -0.304590445793E+03    0.50057E-04   -0.88114E-04 50364   0.167E-01
  19 F= -.30459045E+03 E0= -.30458570E+03  d E =-.146835E-02
       N       E                     dE             d eps       ncg     rms          rms(c)
DAV:   1    -0.304589903641E+03    0.59221E-03   -0.15751E-01 41292   0.139E+00    0.184E-01
DAV:   2    -0.304591002177E+03   -0.10985E-02   -0.15374E-02 68520   0.636E-01    0.213E-01
DAV:   3    -0.304590878834E+03    0.12334E-03   -0.74000E-03 67680   0.438E-01    0.185E-01
DAV:   4    -0.304590631267E+03    0.24757E-03   -0.31612E-03 60264   0.275E-01    0.107E-01
DAV:   5    -0.304590537548E+03    0.93719E-04   -0.13318E-03 55572   0.168E-01    0.902E-02
DAV:   6    -0.304590484732E+03    0.52815E-04   -0.93360E-04 51192   0.145E-01
  20 F= -.30459048E+03 E0= -.30458575E+03  d E =-.150729E-02
       N       E                     dE             d eps       ncg     rms          rms(c)
DAV:   1    -0.304590834188E+03   -0.29664E-03   -0.22242E-01 41280   0.175E+00    0.285E-01
DAV:   2    -0.304592582117E+03   -0.17479E-02   -0.28324E-02 69180   0.763E-01    0.284E-01
DAV:   3    -0.304592485102E+03    0.97015E-04   -0.16820E-02 70680   0.586E-01    0.292E-01
DAV:   4    -0.304591871837E+03    0.61327E-03   -0.63251E-03 60204   0.398E-01    0.167E-01
DAV:   5    -0.304591589804E+03    0.28203E-03   -0.31427E-03 63576   0.242E-01    0.113E-01
DAV:   6    -0.304591481512E+03    0.10829E-03   -0.16402E-03 58164   0.194E-01    0.786E-02
DAV:   7    -0.304591443791E+03    0.37721E-04   -0.64363E-04 45336   0.137E-01
  21 F= -.30459144E+03 E0= -.30458674E+03  d E =-.959059E-03
       N       E                     dE             d eps       ncg     rms          rms(c)
DAV:   1    -0.304590609842E+03    0.87167E-03   -0.25982E-01 41280   0.188E+00    0.287E-01
DAV:   2    -0.304592515634E+03   -0.19058E-02   -0.29944E-02 68052   0.801E-01    0.261E-01
DAV:   3    -0.304592707312E+03   -0.19168E-03   -0.15828E-02 69396   0.582E-01    0.304E-01
DAV:   4    -0.304591908383E+03    0.79893E-03   -0.64718E-03 59940   0.402E-01    0.133E-01
DAV:   5    -0.304591643656E+03    0.26473E-03   -0.22836E-03 62292   0.192E-01    0.787E-02
DAV:   6    -0.304591658026E+03   -0.14371E-04   -0.13502E-03 57624   0.170E-01    0.921E-02
DAV:   7    -0.304591592308E+03    0.65718E-04   -0.65490E-04 45156   0.143E-01
  22 F= -.30459159E+03 E0= -.30458692E+03  d E =-.110758E-02
       N       E                     dE             d eps       ncg     rms          rms(c)
DAV:   1    -0.304591608248E+03    0.49778E-04   -0.87350E-02 41292   0.996E-01    0.981E-02
DAV:   2    -0.304592585813E+03   -0.97756E-03   -0.95033E-03 68808   0.532E-01    0.205E-01
DAV:   3    -0.304592218588E+03    0.36722E-03   -0.35723E-03 62460   0.309E-01    0.861E-02
DAV:   4    -0.304592169410E+03    0.49178E-04   -0.62399E-04 46236   0.130E-01
  23 F= -.30459217E+03 E0= -.30458749E+03  d E =-.577102E-03
       N       E                     dE             d eps       ncg     rms          rms(c)
DAV:   1    -0.304588503424E+03    0.37152E-02   -0.79050E-01 41280   0.297E+00    0.266E-01
DAV:   2    -0.304595773045E+03   -0.72696E-02   -0.73158E-02 68472   0.147E+00    0.516E-01
DAV:   3    -0.304593541659E+03    0.22314E-02   -0.24201E-02 67632   0.806E-01    0.247E-01
DAV:   4    -0.304593201379E+03    0.34028E-03   -0.57486E-03 60528   0.364E-01    0.168E-01
DAV:   5    -0.304592946084E+03    0.25530E-03   -0.24128E-03 60192   0.222E-01    0.118E-01
DAV:   6    -0.304592948243E+03   -0.21595E-05   -0.14633E-03 55848   0.194E-01    0.117E-01
DAV:   7    -0.304592889426E+03    0.58817E-04   -0.13386E-03 56604   0.170E-01    0.898E-02
DAV:   8    -0.304592846885E+03    0.42541E-04   -0.89919E-04 49860   0.157E-01
  24 F= -.30459285E+03 E0= -.30458816E+03  d E =-.125458E-02
       N       E                     dE             d eps       ncg     rms          rms(c)
DAV:   1    -0.304593022371E+03   -0.13294E-03   -0.12601E-01 41304   0.128E+00    0.200E-01
DAV:   2    -0.304594573176E+03   -0.15508E-02   -0.18114E-02 70668   0.668E-01    0.325E-01
DAV:   3    -0.304593760182E+03    0.81299E-03   -0.10841E-02 68484   0.518E-01    0.182E-01
DAV:   4    -0.304593589508E+03    0.17067E-03   -0.31134E-03 62040   0.252E-01    0.131E-01
DAV:   5    -0.304593433780E+03    0.15573E-03   -0.19352E-03 58428   0.196E-01    0.893E-02
DAV:   6    -0.304593372271E+03    0.61509E-04   -0.89029E-04 50124   0.153E-01
  25 F= -.30459337E+03 E0= -.30458868E+03  d E =-.525386E-03
       N       E                     dE             d eps       ncg     rms          rms(c)
DAV:   1    -0.304592375756E+03    0.10580E-02   -0.35460E-01 41280   0.213E+00    0.328E-01
DAV:   2    -0.304597049008E+03   -0.46733E-02   -0.52379E-02 70740   0.117E+00    0.564E-01
DAV:   3    -0.304594195594E+03    0.28534E-02   -0.30214E-02 70164   0.864E-01    0.266E-01
DAV:   4    -0.304594083172E+03    0.11242E-03   -0.80394E-03 61620   0.408E-01    0.257E-01
DAV:   5    -0.304593399881E+03    0.68329E-03   -0.58025E-03 61296   0.348E-01    0.116E-01
DAV:   6    -0.304593324831E+03    0.75050E-04   -0.21053E-03 61008   0.224E-01    0.102E-01
DAV:   7    -0.304593271156E+03    0.53674E-04   -0.14018E-03 57780   0.179E-01    0.800E-02
DAV:   8    -0.304593225855E+03    0.45301E-04   -0.51432E-04 42384   0.128E-01
  26 F= -.30459323E+03 E0= -.30458852E+03  d E =-.378970E-03
