<?xml version="1.0" encoding="ISO-8859-1"?>
<modeling>
 <generator>
  <i name="program" type="string">vasp </i>
  <i name="version" type="string">5.4.4.18Apr17-6-g9f103f2a35  </i>
  <i name="subversion" type="string">(build Aug 09 2018 16:20:53) complex            parallel </i>
  <i name="platform" type="string">LinuxIFC </i>
  <i name="date" type="string">2020 05 01 </i>
  <i name="time" type="string">09:13:18 </i>
 </generator>
 <incar>
  <i type="string" name="SYSTEM"> Nb - Mo - Ta - Ti - V SQS</i>
  <i type="string" name="PREC">normal</i>
  <i type="int" name="ICHARG">     0</i>
  <i type="int" name="IBRION">     2</i>
  <i type="int" name="NSW">    50</i>
  <i type="int" name="ISIF">     3</i>
  <i name="ENCUT">    600.00000000</i>
  <i type="string" name="LREAL"> Auto</i>
  <i type="int" name="ISMEAR">     1</i>
  <i name="SIGMA">      0.20000000</i>
  <v type="int" name="KPOINT_BSE">    -1     0     0     0</v>
  <i type="string" name="GGA"> PS</i>
 </incar>
 <structure name="primitive_cell" >
  <crystal>
   <varray name="basis" >
    <v>      -3.16000000      -3.16000000      -3.16000000 </v>
    <v>       1.58000000       1.58000000      -7.90000000 </v>
    <v>       7.90000000      -7.90000000      -1.58000000 </v>
   </varray>
   <i name="volume">    473.31744000 </i>
   <varray name="rec_basis" >
    <v>      -0.13713080      -0.12658228      -0.05274262 </v>
    <v>       0.04219409       0.06329114      -0.10548523 </v>
    <v>       0.06329114      -0.06329114       0.00000000 </v>
   </varray>
  </crystal>
  <varray name="positions" >
   <v>      -0.03333333      -0.06666667       0.40000000 </v>
   <v>       0.30000000      -0.40000000       0.40000000 </v>
   <v>      -0.10000000      -0.20000000       0.20000000 </v>
   <v>       0.06666667       0.13333333       0.20000000 </v>
   <v>       0.46666667      -0.06666667       0.40000000 </v>
   <v>      -0.13333333      -0.26666667      -0.40000000 </v>
   <v>       0.03333333       0.06666667      -0.40000000 </v>
   <v>      -0.36666667       0.26666667       0.40000000 </v>
   <v>       0.40000000      -0.20000000       0.20000000 </v>
   <v>      -0.43333333       0.13333333       0.20000000 </v>
   <v>       0.36666667      -0.26666667      -0.40000000 </v>
   <v>       0.13333333       0.26666667       0.40000000 </v>
   <v>      -0.46666667       0.06666667      -0.40000000 </v>
   <v>       0.23333333       0.46666667       0.20000000 </v>
   <v>       0.20000000       0.40000000      -0.40000000 </v>
   <v>       0.00000000       0.00000000       0.00000000 </v>
   <v>      -0.06666667      -0.13333333      -0.20000000 </v>
   <v>      -0.30000000       0.40000000      -0.40000000 </v>
   <v>      -0.26666667       0.46666667       0.20000000 </v>
   <v>       0.33333333      -0.33333333       0.00000000 </v>
   <v>       0.43333333      -0.13333333      -0.20000000 </v>
   <v>      -0.50000000       0.00000000       0.00000000 </v>
   <v>       0.26666667      -0.46666667      -0.20000000 </v>
   <v>      -0.33333333       0.33333333       0.00000000 </v>
   <v>      -0.40000000       0.20000000      -0.20000000 </v>
   <v>      -0.16666667      -0.33333333       0.00000000 </v>
   <v>      -0.23333333      -0.46666667      -0.20000000 </v>
   <v>       0.16666667       0.33333333       0.00000000 </v>
   <v>       0.10000000       0.20000000      -0.20000000 </v>
  </varray>
 </structure>
 <varray name="primitive_index" >
  <v type="int" >        1 </v>
  <v type="int" >       17 </v>
  <v type="int" >        7 </v>
  <v type="int" >       23 </v>
  <v type="int" >       19 </v>
  <v type="int" >       18 </v>
  <v type="int" >        6 </v>
  <v type="int" >        2 </v>
  <v type="int" >       15 </v>
  <v type="int" >       14 </v>
  <v type="int" >       10 </v>
  <v type="int" >       11 </v>
  <v type="int" >       27 </v>
  <v type="int" >       29 </v>
  <v type="int" >       22 </v>
  <v type="int" >        4 </v>
  <v type="int" >       13 </v>
  <v type="int" >       25 </v>
  <v type="int" >        8 </v>
  <v type="int" >       28 </v>
  <v type="int" >       16 </v>
  <v type="int" >        3 </v>
  <v type="int" >       21 </v>
  <v type="int" >        9 </v>
  <v type="int" >       26 </v>
  <v type="int" >       12 </v>
  <v type="int" >       24 </v>
  <v type="int" >       20 </v>
  <v type="int" >        5 </v>
 </varray>
 <kpoints>
  <generation param="Gamma">
   <v type="int" name="divisions">       7        7        7 </v>
   <v name="usershift">      0.00000000       0.00000000       0.00000000 </v>
   <v name="genvec1">      0.14285714       0.00000000       0.00000000 </v>
   <v name="genvec2">     -0.00000000       0.14285714       0.00000000 </v>
   <v name="genvec3">      0.00000000       0.00000000       0.14285714 </v>
   <v name="shift">      0.00000000       0.00000000       0.00000000 </v>
  </generation>
  <varray name="kpointlist" >
   <v>       0.00000000       0.00000000       0.00000000 </v>
   <v>       0.14285714       0.00000000      -0.00000000 </v>
   <v>       0.28571429       0.00000000       0.00000000 </v>
   <v>       0.42857143       0.00000000      -0.00000000 </v>
   <v>      -0.00000000       0.14285714       0.00000000 </v>
   <v>       0.14285714       0.14285714      -0.00000000 </v>
   <v>       0.28571429       0.14285714       0.00000000 </v>
   <v>       0.42857143       0.14285714      -0.00000000 </v>
   <v>      -0.42857143       0.14285714       0.00000000 </v>
   <v>      -0.28571429       0.14285714       0.00000000 </v>
   <v>      -0.14285714       0.14285714       0.00000000 </v>
   <v>       0.00000000       0.28571429      -0.00000000 </v>
   <v>       0.14285714       0.28571429      -0.00000000 </v>
   <v>       0.28571429       0.28571429      -0.00000000 </v>
   <v>       0.42857143       0.28571429      -0.00000000 </v>
   <v>      -0.42857143       0.28571429      -0.00000000 </v>
   <v>      -0.28571429       0.28571429      -0.00000000 </v>
   <v>      -0.14285714       0.28571429      -0.00000000 </v>
   <v>      -0.00000000       0.42857143      -0.00000000 </v>
   <v>       0.14285714       0.42857143       0.00000000 </v>
   <v>       0.28571429       0.42857143       0.00000000 </v>
   <v>       0.42857143       0.42857143      -0.00000000 </v>
   <v>      -0.42857143       0.42857143       0.00000000 </v>
   <v>      -0.28571429       0.42857143      -0.00000000 </v>
   <v>      -0.14285714       0.42857143      -0.00000000 </v>
   <v>       0.00000000       0.00000000       0.14285714 </v>
   <v>       0.14285714       0.00000000       0.14285714 </v>
   <v>       0.28571429       0.00000000       0.14285714 </v>
   <v>       0.42857143       0.00000000       0.14285714 </v>
   <v>      -0.42857143       0.00000000       0.14285714 </v>
   <v>      -0.28571429       0.00000000       0.14285714 </v>
   <v>      -0.14285714      -0.00000000       0.14285714 </v>
   <v>      -0.00000000       0.14285714       0.14285714 </v>
   <v>       0.14285714       0.14285714       0.14285714 </v>
   <v>       0.28571429       0.14285714       0.14285714 </v>
   <v>       0.42857143       0.14285714       0.14285714 </v>
   <v>      -0.42857143       0.14285714       0.14285714 </v>
   <v>      -0.28571429       0.14285714       0.14285714 </v>
   <v>      -0.14285714       0.14285714       0.14285714 </v>
   <v>      -0.00000000       0.28571429       0.14285714 </v>
   <v>       0.14285714       0.28571429       0.14285714 </v>
   <v>       0.28571429       0.28571429       0.14285714 </v>
   <v>       0.42857143       0.28571429       0.14285714 </v>
   <v>      -0.42857143       0.28571429       0.14285714 </v>
   <v>      -0.28571429       0.28571429       0.14285714 </v>
   <v>      -0.14285714       0.28571429       0.14285714 </v>
   <v>       0.00000000       0.42857143       0.14285714 </v>
   <v>       0.14285714       0.42857143       0.14285714 </v>
   <v>       0.28571429       0.42857143       0.14285714 </v>
   <v>       0.42857143       0.42857143       0.14285714 </v>
   <v>      -0.42857143       0.42857143       0.14285714 </v>
   <v>      -0.28571429       0.42857143       0.14285714 </v>
   <v>      -0.14285714       0.42857143       0.14285714 </v>
   <v>       0.00000000      -0.42857143       0.14285714 </v>
   <v>       0.14285714      -0.42857143       0.14285714 </v>
   <v>       0.28571429      -0.42857143       0.14285714 </v>
   <v>       0.42857143      -0.42857143       0.14285714 </v>
   <v>      -0.42857143      -0.42857143       0.14285714 </v>
   <v>      -0.28571429      -0.42857143       0.14285714 </v>
   <v>      -0.14285714      -0.42857143       0.14285714 </v>
   <v>       0.00000000      -0.28571429       0.14285714 </v>
   <v>       0.14285714      -0.28571429       0.14285714 </v>
   <v>       0.28571429      -0.28571429       0.14285714 </v>
   <v>       0.42857143      -0.28571429       0.14285714 </v>
   <v>      -0.42857143      -0.28571429       0.14285714 </v>
   <v>      -0.28571429      -0.28571429       0.14285714 </v>
   <v>      -0.14285714      -0.28571429       0.14285714 </v>
   <v>       0.00000000      -0.14285714       0.14285714 </v>
   <v>       0.14285714      -0.14285714       0.14285714 </v>
   <v>       0.28571429      -0.14285714       0.14285714 </v>
   <v>       0.42857143      -0.14285714       0.14285714 </v>
   <v>      -0.42857143      -0.14285714       0.14285714 </v>
   <v>      -0.28571429      -0.14285714       0.14285714 </v>
   <v>      -0.14285714      -0.14285714       0.14285714 </v>
   <v>       0.00000000       0.00000000       0.28571429 </v>
   <v>       0.14285714       0.00000000       0.28571429 </v>
   <v>       0.28571429       0.00000000       0.28571429 </v>
   <v>       0.42857143       0.00000000       0.28571429 </v>
   <v>      -0.42857143      -0.00000000       0.28571429 </v>
   <v>      -0.28571429      -0.00000000       0.28571429 </v>
   <v>      -0.14285714      -0.00000000       0.28571429 </v>
   <v>      -0.00000000       0.14285714       0.28571429 </v>
   <v>       0.14285714       0.14285714       0.28571429 </v>
   <v>       0.28571429       0.14285714       0.28571429 </v>
   <v>       0.42857143       0.14285714       0.28571429 </v>
   <v>      -0.42857143       0.14285714       0.28571429 </v>
   <v>      -0.28571429       0.14285714       0.28571429 </v>
   <v>      -0.14285714       0.14285714       0.28571429 </v>
   <v>      -0.00000000       0.28571429       0.28571429 </v>
   <v>       0.14285714       0.28571429       0.28571429 </v>
   <v>       0.28571429       0.28571429       0.28571429 </v>
   <v>       0.42857143       0.28571429       0.28571429 </v>
   <v>      -0.42857143       0.28571429       0.28571429 </v>
   <v>      -0.28571429       0.28571429       0.28571429 </v>
   <v>      -0.14285714       0.28571429       0.28571429 </v>
   <v>       0.00000000       0.42857143       0.28571429 </v>
   <v>       0.14285714       0.42857143       0.28571429 </v>
   <v>       0.28571429       0.42857143       0.28571429 </v>
   <v>       0.42857143       0.42857143       0.28571429 </v>
   <v>      -0.42857143       0.42857143       0.28571429 </v>
   <v>      -0.28571429       0.42857143       0.28571429 </v>
   <v>      -0.14285714       0.42857143       0.28571429 </v>
   <v>      -0.00000000      -0.42857143       0.28571429 </v>
   <v>       0.14285714      -0.42857143       0.28571429 </v>
   <v>       0.28571429      -0.42857143       0.28571429 </v>
   <v>       0.42857143      -0.42857143       0.28571429 </v>
   <v>      -0.42857143      -0.42857143       0.28571429 </v>
   <v>      -0.28571429      -0.42857143       0.28571429 </v>
   <v>      -0.14285714      -0.42857143       0.28571429 </v>
   <v>       0.00000000      -0.28571429       0.28571429 </v>
   <v>       0.14285714      -0.28571429       0.28571429 </v>
   <v>       0.28571429      -0.28571429       0.28571429 </v>
   <v>       0.42857143      -0.28571429       0.28571429 </v>
   <v>      -0.42857143      -0.28571429       0.28571429 </v>
   <v>      -0.28571429      -0.28571429       0.28571429 </v>
   <v>      -0.14285714      -0.28571429       0.28571429 </v>
   <v>       0.00000000      -0.14285714       0.28571429 </v>
   <v>       0.14285714      -0.14285714       0.28571429 </v>
   <v>       0.28571429      -0.14285714       0.28571429 </v>
   <v>       0.42857143      -0.14285714       0.28571429 </v>
   <v>      -0.42857143      -0.14285714       0.28571429 </v>
   <v>      -0.28571429      -0.14285714       0.28571429 </v>
   <v>      -0.14285714      -0.14285714       0.28571429 </v>
   <v>       0.00000000       0.00000000       0.42857143 </v>
   <v>       0.14285714       0.00000000       0.42857143 </v>
   <v>       0.28571429       0.00000000       0.42857143 </v>
   <v>       0.42857143      -0.00000000       0.42857143 </v>
   <v>      -0.42857143      -0.00000000       0.42857143 </v>
   <v>      -0.28571429       0.00000000       0.42857143 </v>
   <v>      -0.14285714      -0.00000000       0.42857143 </v>
   <v>      -0.00000000       0.14285714       0.42857143 </v>
   <v>       0.14285714       0.14285714       0.42857143 </v>
   <v>       0.28571429       0.14285714       0.42857143 </v>
   <v>       0.42857143       0.14285714       0.42857143 </v>
   <v>      -0.42857143       0.14285714       0.42857143 </v>
   <v>      -0.28571429       0.14285714       0.42857143 </v>
   <v>      -0.14285714       0.14285714       0.42857143 </v>
   <v>       0.00000000       0.28571429       0.42857143 </v>
   <v>       0.14285714       0.28571429       0.42857143 </v>
   <v>       0.28571429       0.28571429       0.42857143 </v>
   <v>       0.42857143       0.28571429       0.42857143 </v>
   <v>      -0.42857143       0.28571429       0.42857143 </v>
   <v>      -0.28571429       0.28571429       0.42857143 </v>
   <v>      -0.14285714       0.28571429       0.42857143 </v>
   <v>       0.00000000       0.42857143       0.42857143 </v>
   <v>       0.14285714       0.42857143       0.42857143 </v>
   <v>       0.28571429       0.42857143       0.42857143 </v>
   <v>       0.42857143       0.42857143       0.42857143 </v>
   <v>      -0.42857143       0.42857143       0.42857143 </v>
   <v>      -0.28571429       0.42857143       0.42857143 </v>
   <v>      -0.14285714       0.42857143       0.42857143 </v>
   <v>       0.00000000      -0.42857143       0.42857143 </v>
   <v>       0.14285714      -0.42857143       0.42857143 </v>
   <v>       0.28571429      -0.42857143       0.42857143 </v>
   <v>       0.42857143      -0.42857143       0.42857143 </v>
   <v>      -0.42857143      -0.42857143       0.42857143 </v>
   <v>      -0.28571429      -0.42857143       0.42857143 </v>
   <v>      -0.14285714      -0.42857143       0.42857143 </v>
   <v>      -0.00000000      -0.28571429       0.42857143 </v>
   <v>       0.14285714      -0.28571429       0.42857143 </v>
   <v>       0.28571429      -0.28571429       0.42857143 </v>
   <v>       0.42857143      -0.28571429       0.42857143 </v>
   <v>      -0.42857143      -0.28571429       0.42857143 </v>
   <v>      -0.28571429      -0.28571429       0.42857143 </v>
   <v>      -0.14285714      -0.28571429       0.42857143 </v>
   <v>       0.00000000      -0.14285714       0.42857143 </v>
   <v>       0.14285714      -0.14285714       0.42857143 </v>
   <v>       0.28571429      -0.14285714       0.42857143 </v>
   <v>       0.42857143      -0.14285714       0.42857143 </v>
   <v>      -0.42857143      -0.14285714       0.42857143 </v>
   <v>      -0.28571429      -0.14285714       0.42857143 </v>
   <v>      -0.14285714      -0.14285714       0.42857143 </v>
  </varray>
  <varray name="weights" >
   <v>       0.00291545 </v>
   <v>       0.00583090 </v>
   <v>       0.00583090 </v>
   <v>       0.00583090 </v>
   <v>       0.00583090 </v>
   <v>       0.00583090 </v>
   <v>       0.00583090 </v>
   <v>       0.00583090 </v>
   <v>       0.00583090 </v>
   <v>       0.00583090 </v>
   <v>       0.00583090 </v>
   <v>       0.00583090 </v>
   <v>       0.00583090 </v>
   <v>       0.00583090 </v>
   <v>       0.00583090 </v>
   <v>       0.00583090 </v>
   <v>       0.00583090 </v>
   <v>       0.00583090 </v>
   <v>       0.00583090 </v>
   <v>       0.00583090 </v>
   <v>       0.00583090 </v>
   <v>       0.00583090 </v>
   <v>       0.00583090 </v>
   <v>       0.00583090 </v>
   <v>       0.00583090 </v>
   <v>       0.00583090 </v>
   <v>       0.00583090 </v>
   <v>       0.00583090 </v>
   <v>       0.00583090 </v>
   <v>       0.00583090 </v>
   <v>       0.00583090 </v>
   <v>       0.00583090 </v>
   <v>       0.00583090 </v>
   <v>       0.00583090 </v>
   <v>       0.00583090 </v>
   <v>       0.00583090 </v>
   <v>       0.00583090 </v>
   <v>       0.00583090 </v>
   <v>       0.00583090 </v>
   <v>       0.00583090 </v>
   <v>       0.00583090 </v>
   <v>       0.00583090 </v>
   <v>       0.00583090 </v>
   <v>       0.00583090 </v>
   <v>       0.00583090 </v>
   <v>       0.00583090 </v>
   <v>       0.00583090 </v>
   <v>       0.00583090 </v>
   <v>       0.00583090 </v>
   <v>       0.00583090 </v>
   <v>       0.00583090 </v>
   <v>       0.00583090 </v>
   <v>       0.00583090 </v>
   <v>       0.00583090 </v>
   <v>       0.00583090 </v>
   <v>       0.00583090 </v>
   <v>       0.00583090 </v>
   <v>       0.00583090 </v>
   <v>       0.00583090 </v>
   <v>       0.00583090 </v>
   <v>       0.00583090 </v>
   <v>       0.00583090 </v>
   <v>       0.00583090 </v>
   <v>       0.00583090 </v>
   <v>       0.00583090 </v>
   <v>       0.00583090 </v>
   <v>       0.00583090 </v>
   <v>       0.00583090 </v>
   <v>       0.00583090 </v>
   <v>       0.00583090 </v>
   <v>       0.00583090 </v>
   <v>       0.00583090 </v>
   <v>       0.00583090 </v>
   <v>       0.00583090 </v>
   <v>       0.00583090 </v>
   <v>       0.00583090 </v>
   <v>       0.00583090 </v>
   <v>       0.00583090 </v>
   <v>       0.00583090 </v>
   <v>       0.00583090 </v>
   <v>       0.00583090 </v>
   <v>       0.00583090 </v>
   <v>       0.00583090 </v>
   <v>       0.00583090 </v>
   <v>       0.00583090 </v>
   <v>       0.00583090 </v>
   <v>       0.00583090 </v>
   <v>       0.00583090 </v>
   <v>       0.00583090 </v>
   <v>       0.00583090 </v>
   <v>       0.00583090 </v>
   <v>       0.00583090 </v>
   <v>       0.00583090 </v>
   <v>       0.00583090 </v>
   <v>       0.00583090 </v>
   <v>       0.00583090 </v>
   <v>       0.00583090 </v>
   <v>       0.00583090 </v>
   <v>       0.00583090 </v>
   <v>       0.00583090 </v>
   <v>       0.00583090 </v>
   <v>       0.00583090 </v>
   <v>       0.00583090 </v>
   <v>       0.00583090 </v>
   <v>       0.00583090 </v>
   <v>       0.00583090 </v>
   <v>       0.00583090 </v>
   <v>       0.00583090 </v>
   <v>       0.00583090 </v>
   <v>       0.00583090 </v>
   <v>       0.00583090 </v>
   <v>       0.00583090 </v>
   <v>       0.00583090 </v>
   <v>       0.00583090 </v>
   <v>       0.00583090 </v>
   <v>       0.00583090 </v>
   <v>       0.00583090 </v>
   <v>       0.00583090 </v>
   <v>       0.00583090 </v>
   <v>       0.00583090 </v>
   <v>       0.00583090 </v>
   <v>       0.00583090 </v>
   <v>       0.00583090 </v>
   <v>       0.00583090 </v>
   <v>       0.00583090 </v>
   <v>       0.00583090 </v>
   <v>       0.00583090 </v>
   <v>       0.00583090 </v>
   <v>       0.00583090 </v>
   <v>       0.00583090 </v>
   <v>       0.00583090 </v>
   <v>       0.00583090 </v>
   <v>       0.00583090 </v>
   <v>       0.00583090 </v>
   <v>       0.00583090 </v>
   <v>       0.00583090 </v>
   <v>       0.00583090 </v>
   <v>       0.00583090 </v>
   <v>       0.00583090 </v>
   <v>       0.00583090 </v>
   <v>       0.00583090 </v>
   <v>       0.00583090 </v>
   <v>       0.00583090 </v>
   <v>       0.00583090 </v>
   <v>       0.00583090 </v>
   <v>       0.00583090 </v>
   <v>       0.00583090 </v>
   <v>       0.00583090 </v>
   <v>       0.00583090 </v>
   <v>       0.00583090 </v>
   <v>       0.00583090 </v>
   <v>       0.00583090 </v>
   <v>       0.00583090 </v>
   <v>       0.00583090 </v>
   <v>       0.00583090 </v>
   <v>       0.00583090 </v>
   <v>       0.00583090 </v>
   <v>       0.00583090 </v>
   <v>       0.00583090 </v>
   <v>       0.00583090 </v>
   <v>       0.00583090 </v>
   <v>       0.00583090 </v>
   <v>       0.00583090 </v>
   <v>       0.00583090 </v>
   <v>       0.00583090 </v>
   <v>       0.00583090 </v>
   <v>       0.00583090 </v>
   <v>       0.00583090 </v>
   <v>       0.00583090 </v>
   <v>       0.00583090 </v>
   <v>       0.00583090 </v>
   <v>       0.00583090 </v>
  </varray>
 </kpoints>
 <parameters>
  <separator name="general" >
   <i type="string" name="SYSTEM">Nb - Mo - Ta - Ti - V SQS</i>
   <i type="logical" name="LCOMPAT"> F  </i>
  </separator>
  <separator name="electronic" >
   <i type="string" name="PREC">normal</i>
   <i name="ENMAX">    600.00000000</i>
   <i name="ENAUG">    455.65900000</i>
   <i name="EDIFF">      0.00010000</i>
   <i type="int" name="IALGO">    38</i>
   <i type="int" name="IWAVPR">    11</i>
   <i type="int" name="NBANDS">   120</i>
   <i name="NELECT">    192.00000000</i>
   <i type="int" name="TURBO">     0</i>
   <i type="int" name="IRESTART">     0</i>
   <i type="int" name="NREBOOT">     0</i>
   <i type="int" name="NMIN">     0</i>
   <i name="EREF">      0.00000000</i>
   <separator name="electronic smearing" >
    <i type="int" name="ISMEAR">     1</i>
    <i name="SIGMA">      0.20000000</i>
    <i name="KSPACING">      0.50000000</i>
    <i type="logical" name="KGAMMA"> T  </i>
   </separator>
   <separator name="electronic projectors" >
    <i type="logical" name="LREAL"> T  </i>
    <v name="ROPT">     -0.00050000     -0.00050000     -0.00050000     -0.00050000     -0.00050000</v>
    <i type="int" name="LMAXPAW">  -100</i>
    <i type="int" name="LMAXMIX">     2</i>
    <i type="logical" name="NLSPLINE"> F  </i>
   </separator>
   <separator name="electronic startup" >
    <i type="int" name="ISTART">     0</i>
    <i type="int" name="ICHARG">     0</i>
    <i type="int" name="INIWAV">     1</i>
   </separator>
   <separator name="electronic spin" >
    <i type="int" name="ISPIN">     1</i>
    <i type="logical" name="LNONCOLLINEAR"> F  </i>
    <v name="MAGMOM">      1.00000000      1.00000000      1.00000000      1.00000000      1.00000000      1.00000000      1.00000000      1.00000000      1.00000000      1.00000000      1.00000000      1.00000000      1.00000000      1.00000000      1.00000000      1.00000000      1.00000000      1.00000000      1.00000000      1.00000000
      1.00000000      1.00000000      1.00000000      1.00000000      1.00000000      1.00000000      1.00000000      1.00000000      1.00000000</v>
    <i name="NUPDOWN">     -1.00000000</i>
    <i type="logical" name="LSORBIT"> F  </i>
    <v name="SAXIS">      0.00000000      0.00000000      1.00000000</v>
    <i type="logical" name="LSPIRAL"> F  </i>
    <v name="QSPIRAL">      0.00000000      0.00000000      0.00000000</v>
    <i type="logical" name="LZEROZ"> F  </i>
   </separator>
   <separator name="electronic exchange-correlation" >
    <i type="logical" name="LASPH"> F  </i>
    <i type="logical" name="LMETAGGA"> F  </i>
   </separator>
   <separator name="electronic convergence" >
    <i type="int" name="NELM">    60</i>
    <i type="int" name="NELMDL">    -5</i>
    <i type="int" name="NELMIN">     2</i>
    <i name="ENINI">    600.00000000</i>
    <separator name="electronic convergence detail" >
     <i type="logical" name="LDIAG"> T  </i>
     <i type="logical" name="LSUBROT"> F  </i>
     <i name="WEIMIN">      0.00100000</i>
     <i name="EBREAK">      0.00000021</i>
     <i name="DEPER">      0.30000000</i>
     <i type="int" name="NRMM">     4</i>
     <i name="TIME">      0.40000000</i>
    </separator>
   </separator>
   <separator name="electronic mixer" >
    <i name="AMIX">      0.40000000</i>
    <i name="BMIX">      1.00000000</i>
    <i name="AMIN">      0.10000000</i>
    <i name="AMIX_MAG">      1.60000000</i>
    <i name="BMIX_MAG">      1.00000000</i>
    <separator name="electronic mixer details" >
     <i type="int" name="IMIX">     4</i>
     <i type="logical" name="MIXFIRST"> F  </i>
     <i type="int" name="MAXMIX">   -45</i>
     <i name="WC">    100.00000000</i>
     <i type="int" name="INIMIX">     1</i>
     <i type="int" name="MIXPRE">     1</i>
     <i type="int" name="MREMOVE">     5</i>
    </separator>
   </separator>
   <separator name="electronic dipolcorrection" >
    <i type="logical" name="LDIPOL"> F  </i>
    <i type="logical" name="LMONO"> F  </i>
    <i type="int" name="IDIPOL">     0</i>
    <i name="EPSILON">      1.00000000</i>
    <v name="DIPOL">   -100.00000000   -100.00000000   -100.00000000</v>
    <i name="EFIELD">      0.00000000</i>
   </separator>
  </separator>
  <separator name="grids" >
   <i type="int" name="NGX">    36</i>
   <i type="int" name="NGY">    50</i>
   <i type="int" name="NGZ">    70</i>
   <i type="int" name="NGXF">    72</i>
   <i type="int" name="NGYF">   100</i>
   <i type="int" name="NGZF">   140</i>
   <i type="logical" name="ADDGRID"> F  </i>
  </separator>
  <separator name="ionic" >
   <i type="int" name="NSW">    50</i>
   <i type="int" name="IBRION">     2</i>
   <i type="int" name="MDALGO">     0</i>
   <i type="int" name="ISIF">     3</i>
   <i name="PSTRESS">      0.00000000</i>
   <i name="EDIFFG">      0.00100000</i>
   <i type="int" name="NFREE">     1</i>
   <i name="POTIM">      0.50000000</i>
   <i name="SMASS">     -3.00000000</i>
   <i name="SCALEE">      1.00000000</i>
  </separator>
  <separator name="ionic md" >
   <i name="TEBEG">      0.00010000</i>
   <i name="TEEND">      0.00010000</i>
   <i type="int" name="NBLOCK">     1</i>
   <i type="int" name="KBLOCK">    50</i>
   <i type="int" name="NPACO">   256</i>
   <i name="APACO">     16.00000000</i>
  </separator>
  <separator name="symmetry" >
   <i type="int" name="ISYM">     2</i>
   <i name="SYMPREC">      0.00001000</i>
  </separator>
  <separator name="dos" >
   <i type="int" name="LORBIT">     0</i>
   <v name="RWIGS">     -1.00000000     -1.00000000     -1.00000000     -1.00000000     -1.00000000</v>
   <i type="int" name="NEDOS">   301</i>
   <i name="EMIN">     10.00000000</i>
   <i name="EMAX">    -10.00000000</i>
   <i name="EFERMI">      0.00000000</i>
  </separator>
  <separator name="writing" >
   <i type="int" name="NWRITE">     2</i>
   <i type="logical" name="LWAVE"> T  </i>
   <i type="logical" name="LDOWNSAMPLE"> F  </i>
   <i type="logical" name="LCHARG"> T  </i>
   <i type="logical" name="LPARD"> F  </i>
   <i type="logical" name="LVTOT"> F  </i>
   <i type="logical" name="LVHAR"> F  </i>
   <i type="logical" name="LELF"> F  </i>
   <i type="logical" name="LOPTICS"> F  </i>
   <v name="STM">      0.00000000      0.00000000      0.00000000      0.00000000      0.00000000      0.00000000      0.00000000</v>
  </separator>
  <separator name="performance" >
   <i type="int" name="NPAR">    12</i>
   <i type="int" name="NSIM">     4</i>
   <i type="int" name="NBLK">    -1</i>
   <i type="logical" name="LPLANE"> T  </i>
   <i type="logical" name="LSCALAPACK"> T  </i>
   <i type="logical" name="LSCAAWARE"> F  </i>
   <i type="logical" name="LSCALU"> F  </i>
   <i type="logical" name="LASYNC"> F  </i>
   <i type="logical" name="LORBITALREAL"> F  </i>
  </separator>
  <separator name="miscellaneous" >
   <i type="int" name="IDIOT">     3</i>
   <i type="int" name="ISPECIAL">     0</i>
   <i type="logical" name="LMUSIC"> F  </i>
   <v name="POMASS">     92.91000000     95.94000000    180.94800000     47.88000000     50.94100000</v>
   <v name="DARWINR">      0.00000000      0.00000000      0.00000000      0.00000000      0.00000000</v>
   <v name="DARWINV">      1.00000000      1.00000000      1.00000000      1.00000000      1.00000000</v>
   <i type="logical" name="LCORR"> T  </i>
  </separator>
  <i type="logical" name="GGA_COMPAT"> T  </i>
  <i type="logical" name="LBERRY"> F  </i>
  <i type="int" name="ICORELEVEL">     0</i>
  <i type="logical" name="LDAU"> F  </i>
  <i type="int" name="I_CONSTRAINED_M">     0</i>
  <separator name="electronic exchange-correlation" >
   <i type="string" name="GGA">PS</i>
   <i type="int" name="VOSKOWN">     0</i>
   <i type="logical" name="LHFCALC"> F  </i>
   <i type="string" name="PRECFOCK"></i>
   <i type="logical" name="LSYMGRAD"> F  </i>
   <i type="logical" name="LHFONE"> F  </i>
   <i type="logical" name="LRHFCALC"> F  </i>
   <i type="logical" name="LTHOMAS"> F  </i>
   <i type="logical" name="LMODELHF"> F  </i>
   <i name="ENCUT4O">     -1.00000000</i>
   <i type="int" name="EXXOEP">     0</i>
   <i type="int" name="FOURORBIT">     0</i>
   <i name="AEXX">      0.00000000</i>
   <i name="HFALPHA">      0.00000000</i>
   <i name="MCALPHA">      0.00000000</i>
   <i name="ALDAX">      1.00000000</i>
   <i name="AGGAX">      1.00000000</i>
   <i name="ALDAC">      1.00000000</i>
   <i name="AGGAC">      1.00000000</i>
   <i type="int" name="NKREDX">     1</i>
   <i type="int" name="NKREDY">     1</i>
   <i type="int" name="NKREDZ">     1</i>
   <i type="logical" name="SHIFTRED"> F  </i>
   <i type="logical" name="ODDONLY"> F  </i>
   <i type="logical" name="EVENONLY"> F  </i>
   <i type="int" name="LMAXFOCK">     0</i>
   <i type="int" name="NMAXFOCKAE">     0</i>
   <i type="logical" name="LFOCKAEDFT"> F  </i>
   <i name="HFSCREEN">      0.00000000</i>
   <i name="HFSCREENC">      0.00000000</i>
   <i type="int" name="NBANDSGWLOW">     0</i>
  </separator>
  <separator name="vdW DFT" >
   <i type="logical" name="LUSE_VDW"> F  </i>
   <i name="Zab_VDW">     -0.84910000</i>
   <i name="PARAM1">      0.12340000</i>
   <i name="PARAM2">      1.00000000</i>
   <i name="PARAM3">      0.00000000</i>
  </separator>
  <separator name="model GW" >
   <i type="int" name="MODEL_GW">     0</i>
   <i name="MODEL_EPS0">      9.79277462</i>
   <i name="MODEL_ALPHA">      1.00000000</i>
  </separator>
  <separator name="linear response parameters" >
   <i type="logical" name="LEPSILON"> F  </i>
   <i type="logical" name="LRPA"> F  </i>
   <i type="logical" name="LNABLA"> F  </i>
   <i type="logical" name="LVEL"> F  </i>
   <i type="int" name="KINTER">     0</i>
   <i name="CSHIFT">      0.10000000</i>
   <i name="OMEGAMAX">     -1.00000000</i>
   <i name="DEG_THRESHOLD">      0.00200000</i>
   <i name="RTIME">     -0.10000000</i>
   <i name="WPLASMAI">      0.00000000</i>
   <v name="DFIELD">      0.00000000      0.00000000      0.00000000</v>
   <v name="WPLASMA">      0.00000000      0.00000000      0.00000000      0.00000000      0.00000000      0.00000000      0.00000000      0.00000000      0.00000000</v>
  </separator>
  <separator name="orbital magnetization" >
   <i type="logical" name="NUCIND"> F  </i>
   <v name="MAGPOS">      0.00000000      0.00000000      0.00000000</v>
   <i type="logical" name="LNICSALL"> T  </i>
   <i type="logical" name="ORBITALMAG"> F  </i>
   <i type="logical" name="LMAGBLOCH"> F  </i>
   <i type="logical" name="LCHIMAG"> F  </i>
   <i type="logical" name="LGAUGE"> T  </i>
   <i type="int" name="MAGATOM">     0</i>
   <v name="MAGDIPOL">      0.00000000      0.00000000      0.00000000</v>
   <v name="AVECCONST">      0.00000000      0.00000000      0.00000000</v>
  </separator>
  <separator name="response functions" >
   <i type="logical" name="LADDER"> F  </i>
   <i type="logical" name="LRPAFORCE"> F  </i>
   <i type="logical" name="LFXC"> F  </i>
   <i type="logical" name="LHARTREE"> T  </i>
   <i type="int" name="IBSE">     0</i>
   <v type="int" name="KPOINT">    -1     0     0     0</v>
   <i type="logical" name="LTCTE"> F  </i>
   <i type="logical" name="LTETE"> F  </i>
   <i type="logical" name="LTRIPLET"> F  </i>
   <i type="logical" name="LFXCEPS"> F  </i>
   <i type="logical" name="LFXHEG"> F  </i>
   <i type="int" name="NATURALO">     2</i>
   <i type="logical" name="L2ORDER"> F  </i>
   <i type="logical" name="LMP2LT"> F  </i>
   <i type="logical" name="LUSEW"> F  </i>
   <i name="ENCUTGW">     -2.00000000</i>
   <i name="ENCUTGWSOFT">     -2.00000000</i>
   <i name="ENCUTLF">     -1.00000000</i>
   <i type="int" name="LMAXMP2">    -1</i>
   <i name="SCISSOR">      0.00000000</i>
   <i type="int" name="NOMEGA">     0</i>
   <i type="int" name="NOMEGAR">     0</i>
   <i type="int" name="NBANDSGW">    -1</i>
   <i type="int" name="NBANDSO">    -1</i>
   <i type="int" name="NBANDSV">    -1</i>
   <i type="int" name="NELM">     1</i>
   <i type="int" name="NELMHF">     1</i>
   <i type="int" name="DIM">     3</i>
   <i type="int" name="ANTIRES">     0</i>
   <i name="OMEGAMAX">    -30.00000000</i>
   <i name="OMEGAMIN">    -30.00000000</i>
   <i name="OMEGATL">   -200.00000000</i>
   <i type="int" name="OMEGAGRID">   140</i>
   <i name="CSHIFT">     -0.10000000</i>
   <i type="logical" name="SELFENERGY"> F  </i>
   <i type="logical" name="LSPECTRAL"> F  </i>
   <i type="logical" name="LSPECTRALGW"> F  </i>
   <i type="logical" name="LSINGLES"> F  </i>
   <i type="logical" name="LFERMIGW"> F  </i>
   <i type="logical" name="ODDONLYGW"> F  </i>
   <i type="logical" name="EVENONLYGW"> F  </i>
   <i type="int" name="NKREDLFX">     1</i>
   <i type="int" name="NKREDLFY">     1</i>
   <i type="int" name="NKREDLFZ">     1</i>
   <i type="int" name="MAXMEM">  2800</i>
   <i type="int" name="TELESCOPE">     0</i>
   <i type="int" name="TAUPAR">     1</i>
   <i type="int" name="OMEGAPAR">    -1</i>
   <i name="LAMBDA">      1.00000000</i>
  </separator>
  <separator name="External order field" >
   <i name="OFIELD_KAPPA">      0.00000000</i>
   <v name="OFIELD_K">      0.00000000      0.00000000      0.00000000</v>
   <i name="OFIELD_Q6_NEAR">      0.00000000</i>
   <i name="OFIELD_Q6_FAR">      0.00000000</i>
   <i name="OFIELD_A">      0.00000000</i>
  </separator>
  <separator name="solvation model" >
   <i type="logical" name="LSOL"> F  </i>
  </separator>
 </parameters>
 <atominfo>
  <atoms>      29 </atoms>
  <types>       5 </types>
  <array name="atoms" >
   <dimension dim="1">ion</dimension>
   <field type="string">element</field>
   <field type="int">atomtype</field>
   <set>
    <rc><c>Nb</c><c>   1</c></rc>
    <rc><c>Nb</c><c>   1</c></rc>
    <rc><c>Nb</c><c>   1</c></rc>
    <rc><c>Nb</c><c>   1</c></rc>
    <rc><c>Nb</c><c>   1</c></rc>
    <rc><c>Nb</c><c>   1</c></rc>
    <rc><c>Mo</c><c>   2</c></rc>
    <rc><c>Mo</c><c>   2</c></rc>
    <rc><c>Mo</c><c>   2</c></rc>
    <rc><c>Mo</c><c>   2</c></rc>
    <rc><c>Mo</c><c>   2</c></rc>
    <rc><c>Ta</c><c>   3</c></rc>
    <rc><c>Ta</c><c>   3</c></rc>
    <rc><c>Ta</c><c>   3</c></rc>
    <rc><c>Ta</c><c>   3</c></rc>
    <rc><c>Ta</c><c>   3</c></rc>
    <rc><c>Ta</c><c>   3</c></rc>
    <rc><c>Ti</c><c>   4</c></rc>
    <rc><c>Ti</c><c>   4</c></rc>
    <rc><c>Ti</c><c>   4</c></rc>
    <rc><c>Ti</c><c>   4</c></rc>
    <rc><c>Ti</c><c>   4</c></rc>
    <rc><c>Ti</c><c>   4</c></rc>
    <rc><c>V </c><c>   5</c></rc>
    <rc><c>V </c><c>   5</c></rc>
    <rc><c>V </c><c>   5</c></rc>
    <rc><c>V </c><c>   5</c></rc>
    <rc><c>V </c><c>   5</c></rc>
    <rc><c>V </c><c>   5</c></rc>
   </set>
  </array>
  <array name="atomtypes" >
   <dimension dim="1">type</dimension>
   <field type="int">atomspertype</field>
   <field type="string">element</field>
   <field>mass</field>
   <field>valence</field>
   <field type="string">pseudopotential</field>
   <set>
    <rc><c>   6</c><c>Nb</c><c>     92.91000000</c><c>     13.00000000</c><c>  PAW_PBE Nb_sv 25May2007               </c></rc>
    <rc><c>   5</c><c>Mo</c><c>     95.94000000</c><c>      6.00000000</c><c>  PAW_PBE Mo 08Apr2002                  </c></rc>
    <rc><c>   6</c><c>Ta</c><c>    180.94800000</c><c>      5.00000000</c><c>  PAW_PBE Ta 17Jan2003                  </c></rc>
    <rc><c>   6</c><c>Ti</c><c>     47.88000000</c><c>      4.00000000</c><c>  PAW_PBE Ti 08Apr2002                  </c></rc>
    <rc><c>   6</c><c>V </c><c>     50.94100000</c><c>      5.00000000</c><c>  PAW_PBE V 08Apr2002                   </c></rc>
   </set>
  </array>
 </atominfo>
 <structure name="initialpos" >
  <crystal>
   <varray name="basis" >
    <v>      -3.16000000      -3.16000000      -3.16000000 </v>
    <v>       1.58000000       1.58000000      -7.90000000 </v>
    <v>       7.90000000      -7.90000000      -1.58000000 </v>
   </varray>
   <i name="volume">    473.31744000 </i>
   <varray name="rec_basis" >
    <v>      -0.13713080      -0.12658228      -0.05274262 </v>
    <v>       0.04219409       0.06329114      -0.10548523 </v>
    <v>       0.06329114      -0.06329114       0.00000000 </v>
   </varray>
  </crystal>
  <varray name="positions" >
   <v>       0.96666667       0.93333333       0.40000000 </v>
   <v>       0.63333333       0.26666667       0.40000000 </v>
   <v>       0.50000000       0.00000000       0.00000000 </v>
   <v>       0.00000000       0.00000000       0.00000000 </v>
   <v>       0.10000000       0.20000000       0.80000000 </v>
   <v>       0.03333333       0.06666667       0.60000000 </v>
   <v>       0.90000000       0.80000000       0.20000000 </v>
   <v>       0.73333333       0.46666667       0.20000000 </v>
   <v>       0.66666667       0.33333333       0.00000000 </v>
   <v>       0.36666667       0.73333333       0.60000000 </v>
   <v>       0.13333333       0.26666667       0.40000000 </v>
   <v>       0.83333333       0.66666667       0.00000000 </v>
   <v>       0.93333333       0.86666667       0.80000000 </v>
   <v>       0.56666667       0.13333333       0.20000000 </v>
   <v>       0.40000000       0.80000000       0.20000000 </v>
   <v>       0.43333333       0.86666667       0.80000000 </v>
   <v>       0.30000000       0.60000000       0.40000000 </v>
   <v>       0.86666667       0.73333333       0.60000000 </v>
   <v>       0.46666667       0.93333333       0.40000000 </v>
   <v>       0.16666667       0.33333333       0.00000000 </v>
   <v>       0.26666667       0.53333333       0.80000000 </v>
   <v>       0.20000000       0.40000000       0.60000000 </v>
   <v>       0.06666667       0.13333333       0.20000000 </v>
   <v>       0.76666667       0.53333333       0.80000000 </v>
   <v>       0.70000000       0.40000000       0.60000000 </v>
   <v>       0.60000000       0.20000000       0.80000000 </v>
   <v>       0.53333333       0.06666667       0.60000000 </v>
   <v>       0.33333333       0.66666667       0.00000000 </v>
   <v>       0.23333333       0.46666667       0.20000000 </v>
  </varray>
 </structure>
 <calculation>
  <scstep>
   <time name="dav">   42.85   42.91</time>
   <time name="total">   42.99   43.05</time>
   <energy>
    <i name="alphaZ">   1146.37395419 </i>
    <i name="ewald"> -10898.88855618 </i>
    <i name="hartreedc">   -110.49527755 </i>
    <i name="XCdc">   -921.53114876 </i>
    <i name="pawpsdc"> 562695.29641102 </i>
    <i name="pawaedc">-561455.54488875 </i>
    <i name="eentropy">      0.00228443 </i>
    <i name="bandstr">  -7457.57766106 </i>
    <i name="atom">  12788.47826598 </i>
    <i name="e_fr_energy">  -4213.88661669 </i>
    <i name="e_wo_entrp">  -4213.88890111 </i>
    <i name="e_0_energy">  -4213.88737816 </i>
   </energy>
  </scstep>
  <scstep>
   <time name="dav">   48.48   48.54</time>
   <time name="total">   48.49   48.55</time>
   <energy>
    <i name="e_fr_energy"> -10056.77227551 </i>
    <i name="e_wo_entrp"> -10056.77132341 </i>
    <i name="e_0_energy"> -10056.77195815 </i>
   </energy>
  </scstep>
  <scstep>
   <time name="dav">   56.20   56.27</time>
   <time name="total">   56.21   56.28</time>
   <energy>
    <i name="e_fr_energy"> -10976.98483976 </i>
    <i name="e_wo_entrp"> -10976.98211674 </i>
    <i name="e_0_energy"> -10976.98393209 </i>
   </energy>
  </scstep>
  <scstep>
   <time name="dav">   56.30   56.37</time>
   <time name="total">   56.31   56.38</time>
   <energy>
    <i name="e_fr_energy"> -11224.83751468 </i>
    <i name="e_wo_entrp"> -11224.84108575 </i>
    <i name="e_0_energy"> -11224.83870503 </i>
   </energy>
  </scstep>
  <scstep>
   <time name="dav">   56.32   56.39</time>
   <time name="total">   56.92   56.99</time>
   <energy>
    <i name="e_fr_energy"> -11372.93009184 </i>
    <i name="e_wo_entrp"> -11372.92830991 </i>
    <i name="e_0_energy"> -11372.92949787 </i>
   </energy>
  </scstep>
  <scstep>
   <time name="dav">   46.74   46.80</time>
   <time name="total">   47.51   47.57</time>
   <energy>
    <i name="e_fr_energy">  -1130.74695871 </i>
    <i name="e_wo_entrp">  -1130.74723762 </i>
    <i name="e_0_energy">  -1130.74705168 </i>
   </energy>
  </scstep>
  <scstep>
   <time name="dav">   50.55   50.69</time>
   <time name="total">   51.26   51.44</time>
   <energy>
    <i name="e_fr_energy">   -715.63867631 </i>
    <i name="e_wo_entrp">   -715.63539895 </i>
    <i name="e_0_energy">   -715.63758386 </i>
   </energy>
  </scstep>
  <scstep>
   <time name="dav">   50.75   50.81</time>
   <time name="total">   51.42   51.48</time>
   <energy>
    <i name="e_fr_energy">   -583.21291798 </i>
    <i name="e_wo_entrp">   -583.21387825 </i>
    <i name="e_0_energy">   -583.21323807 </i>
   </energy>
  </scstep>
  <scstep>
   <time name="dav">   49.85   49.91</time>
   <time name="total">   50.52   50.57</time>
   <energy>
    <i name="e_fr_energy">   -520.58522562 </i>
    <i name="e_wo_entrp">   -520.59022982 </i>
    <i name="e_0_energy">   -520.58689369 </i>
   </energy>
  </scstep>
  <scstep>
   <time name="dav">   56.18   56.25</time>
   <time name="total">   56.84   56.92</time>
   <energy>
    <i name="e_fr_energy">   -555.90823666 </i>
    <i name="e_wo_entrp">   -555.90518261 </i>
    <i name="e_0_energy">   -555.90721864 </i>
   </energy>
  </scstep>
  <scstep>
   <time name="dav">   51.69   51.75</time>
   <time name="total">   52.36   52.42</time>
   <energy>
    <i name="e_fr_energy">   -625.41165518 </i>
    <i name="e_wo_entrp">   -625.40382314 </i>
    <i name="e_0_energy">   -625.40904450 </i>
   </energy>
  </scstep>
  <scstep>
   <time name="dav">   52.72   52.79</time>
   <time name="total">   53.38   53.45</time>
   <energy>
    <i name="e_fr_energy">   -867.76189944 </i>
    <i name="e_wo_entrp">   -867.75794549 </i>
    <i name="e_0_energy">   -867.76058146 </i>
   </energy>
  </scstep>
  <scstep>
   <time name="dav">   48.70   48.76</time>
   <time name="total">   49.40   49.46</time>
   <energy>
    <i name="e_fr_energy">   -804.79100166 </i>
    <i name="e_wo_entrp">   -804.78762746 </i>
    <i name="e_0_energy">   -804.78987692 </i>
   </energy>
  </scstep>
  <scstep>
   <time name="dav">   50.56   50.62</time>
   <time name="total">   51.23   51.29</time>
   <energy>
    <i name="e_fr_energy">   -876.63191903 </i>
    <i name="e_wo_entrp">   -876.62651544 </i>
    <i name="e_0_energy">   -876.63011783 </i>
   </energy>
  </scstep>
  <scstep>
   <time name="dav">   47.63   47.69</time>
   <time name="total">   48.32   48.38</time>
   <energy>
    <i name="e_fr_energy">   -706.14065185 </i>
    <i name="e_wo_entrp">   -706.14002251 </i>
    <i name="e_0_energy">   -706.14044207 </i>
   </energy>
  </scstep>
  <scstep>
   <time name="dav">   54.35   54.48</time>
   <time name="total">   54.99   55.16</time>
   <energy>
    <i name="e_fr_energy">   -627.80876044 </i>
    <i name="e_wo_entrp">   -627.80819677 </i>
    <i name="e_0_energy">   -627.80857255 </i>
   </energy>
  </scstep>
  <scstep>
   <time name="dav">   49.14   49.21</time>
   <time name="total">   49.80   49.87</time>
   <energy>
    <i name="e_fr_energy">   -524.24269965 </i>
    <i name="e_wo_entrp">   -524.25229303 </i>
    <i name="e_0_energy">   -524.24589744 </i>
   </energy>
  </scstep>
  <scstep>
   <time name="dav">   55.54   55.61</time>
   <time name="total">   56.21   56.28</time>
   <energy>
    <i name="e_fr_energy">   -492.09960729 </i>
    <i name="e_wo_entrp">   -492.09128262 </i>
    <i name="e_0_energy">   -492.09683240 </i>
   </energy>
  </scstep>
  <scstep>
   <time name="dav">   52.04   52.11</time>
   <time name="total">   52.70   52.77</time>
   <energy>
    <i name="e_fr_energy">   -467.75890572 </i>
    <i name="e_wo_entrp">   -467.74722296 </i>
    <i name="e_0_energy">   -467.75501147 </i>
   </energy>
  </scstep>
  <scstep>
   <time name="dav">   52.54   52.60</time>
   <time name="total">   53.20   53.27</time>
   <energy>
    <i name="e_fr_energy">   -429.61100867 </i>
    <i name="e_wo_entrp">   -429.61090368 </i>
    <i name="e_0_energy">   -429.61097367 </i>
   </energy>
  </scstep>
  <scstep>
   <time name="dav">   53.78   53.84</time>
   <time name="total">   54.43   54.49</time>
   <energy>
    <i name="e_fr_energy">   -373.46570406 </i>
    <i name="e_wo_entrp">   -373.46371240 </i>
    <i name="e_0_energy">   -373.46504017 </i>
   </energy>
  </scstep>
  <scstep>
   <time name="dav">   52.84   52.90</time>
   <time name="total">   53.49   53.56</time>
   <energy>
    <i name="e_fr_energy">   -348.64046115 </i>
    <i name="e_wo_entrp">   -348.63434222 </i>
    <i name="e_0_energy">   -348.63842151 </i>
   </energy>
  </scstep>
  <scstep>
   <time name="dav">   52.92   52.98</time>
   <time name="total">   53.58   53.64</time>
   <energy>
    <i name="e_fr_energy">   -326.34572716 </i>
    <i name="e_wo_entrp">   -326.33801374 </i>
    <i name="e_0_energy">   -326.34315602 </i>
   </energy>
  </scstep>
  <scstep>
   <time name="dav">   54.69   54.76</time>
   <time name="total">   55.35   55.43</time>
   <energy>
    <i name="e_fr_energy">   -316.95953082 </i>
    <i name="e_wo_entrp">   -316.95143321 </i>
    <i name="e_0_energy">   -316.95683162 </i>
   </energy>
  </scstep>
  <scstep>
   <time name="dav">   52.66   52.73</time>
   <time name="total">   53.31   53.38</time>
   <energy>
    <i name="e_fr_energy">   -311.70960013 </i>
    <i name="e_wo_entrp">   -311.68960831 </i>
    <i name="e_0_energy">   -311.70293619 </i>
   </energy>
  </scstep>
  <scstep>
   <time name="dav">   52.96   53.03</time>
   <time name="total">   53.63   53.70</time>
   <energy>
    <i name="e_fr_energy">   -308.85647367 </i>
    <i name="e_wo_entrp">   -308.83312710 </i>
    <i name="e_0_energy">   -308.84869148 </i>
   </energy>
  </scstep>
  <scstep>
   <time name="dav">   52.59   52.66</time>
   <time name="total">   53.24   53.31</time>
   <energy>
    <i name="e_fr_energy">   -308.68760003 </i>
    <i name="e_wo_entrp">   -308.66550336 </i>
    <i name="e_0_energy">   -308.68023448 </i>
   </energy>
  </scstep>
  <scstep>
   <time name="dav">   48.64   48.71</time>
   <time name="total">   49.29   49.37</time>
   <energy>
    <i name="e_fr_energy">   -306.72161266 </i>
    <i name="e_wo_entrp">   -306.69848735 </i>
    <i name="e_0_energy">   -306.71390423 </i>
   </energy>
  </scstep>
  <scstep>
   <time name="dav">   48.51   48.58</time>
   <time name="total">   49.16   49.23</time>
   <energy>
    <i name="e_fr_energy">   -305.30489340 </i>
    <i name="e_wo_entrp">   -305.28135595 </i>
    <i name="e_0_energy">   -305.29704758 </i>
   </energy>
  </scstep>
  <scstep>
   <time name="dav">   49.63   49.70</time>
   <time name="total">   50.29   50.37</time>
   <energy>
    <i name="e_fr_energy">   -305.02905539 </i>
    <i name="e_wo_entrp">   -305.00388254 </i>
    <i name="e_0_energy">   -305.02066444 </i>
   </energy>
  </scstep>
  <scstep>
   <time name="dav">   49.00   49.18</time>
   <time name="total">   49.66   49.83</time>
   <energy>
    <i name="e_fr_energy">   -304.53260909 </i>
    <i name="e_wo_entrp">   -304.50859849 </i>
    <i name="e_0_energy">   -304.52460556 </i>
   </energy>
  </scstep>
  <scstep>
   <time name="dav">   47.85   47.91</time>
   <time name="total">   48.52   48.58</time>
   <energy>
    <i name="e_fr_energy">   -304.16638964 </i>
    <i name="e_wo_entrp">   -304.14424969 </i>
    <i name="e_0_energy">   -304.15900966 </i>
   </energy>
  </scstep>
  <scstep>
   <time name="dav">   49.83   49.89</time>
   <time name="total">   50.48   50.55</time>
   <energy>
    <i name="e_fr_energy">   -304.00338506 </i>
    <i name="e_wo_entrp">   -303.98039588 </i>
    <i name="e_0_energy">   -303.99572200 </i>
   </energy>
  </scstep>
  <scstep>
   <time name="dav">   50.83   51.00</time>
   <time name="total">   51.49   51.67</time>
   <energy>
    <i name="e_fr_energy">   -304.22941036 </i>
    <i name="e_wo_entrp">   -304.21335464 </i>
    <i name="e_0_energy">   -304.22405846 </i>
   </energy>
  </scstep>
  <scstep>
   <time name="dav">   53.72   53.78</time>
   <time name="total">   54.37   54.44</time>
   <energy>
    <i name="e_fr_energy">   -304.06565965 </i>
    <i name="e_wo_entrp">   -304.04712227 </i>
    <i name="e_0_energy">   -304.05948052 </i>
   </energy>
  </scstep>
  <scstep>
   <time name="dav">   51.03   51.09</time>
   <time name="total">   51.70   51.76</time>
   <energy>
    <i name="e_fr_energy">   -303.86205411 </i>
    <i name="e_wo_entrp">   -303.84354687 </i>
    <i name="e_0_energy">   -303.85588503 </i>
   </energy>
  </scstep>
  <scstep>
   <time name="dav">   49.48   49.54</time>
   <time name="total">   50.13   50.19</time>
   <energy>
    <i name="e_fr_energy">   -303.78019715 </i>
    <i name="e_wo_entrp">   -303.76008756 </i>
    <i name="e_0_energy">   -303.77349395 </i>
   </energy>
  </scstep>
  <scstep>
   <time name="dav">   50.28   50.34</time>
   <time name="total">   50.95   51.01</time>
   <energy>
    <i name="e_fr_energy">   -303.78597332 </i>
    <i name="e_wo_entrp">   -303.76631698 </i>
    <i name="e_0_energy">   -303.77942121 </i>
   </energy>
  </scstep>
  <scstep>
   <time name="dav">   50.21   50.26</time>
   <time name="total">   50.86   50.92</time>
   <energy>
    <i name="e_fr_energy">   -303.71042682 </i>
    <i name="e_wo_entrp">   -303.68970496 </i>
    <i name="e_0_energy">   -303.70351953 </i>
   </energy>
  </scstep>
  <scstep>
   <time name="dav">   50.61   50.67</time>
   <time name="total">   51.27   51.34</time>
   <energy>
    <i name="e_fr_energy">   -303.69150000 </i>
    <i name="e_wo_entrp">   -303.67069912 </i>
    <i name="e_0_energy">   -303.68456637 </i>
   </energy>
  </scstep>
  <scstep>
   <time name="dav">   47.09   47.15</time>
   <time name="total">   47.75   47.81</time>
   <energy>
    <i name="e_fr_energy">   -303.67655204 </i>
    <i name="e_wo_entrp">   -303.65526569 </i>
    <i name="e_0_energy">   -303.66945659 </i>
   </energy>
  </scstep>
  <scstep>
   <time name="dav">   52.18   52.24</time>
   <time name="total">   52.83   52.90</time>
   <energy>
    <i name="e_fr_energy">   -303.65657281 </i>
    <i name="e_wo_entrp">   -303.63490817 </i>
    <i name="e_0_energy">   -303.64935127 </i>
   </energy>
  </scstep>
  <scstep>
   <time name="dav">   51.14   51.20</time>
   <time name="total">   51.79   51.85</time>
   <energy>
    <i name="e_fr_energy">   -303.64927461 </i>
    <i name="e_wo_entrp">   -303.62753668 </i>
    <i name="e_0_energy">   -303.64202864 </i>
   </energy>
  </scstep>
  <scstep>
   <time name="dav">   47.33   47.38</time>
   <time name="total">   47.99   48.06</time>
   <energy>
    <i name="e_fr_energy">   -303.64850415 </i>
    <i name="e_wo_entrp">   -303.62690354 </i>
    <i name="e_0_energy">   -303.64130395 </i>
   </energy>
  </scstep>
  <scstep>
   <time name="dav">   47.02   47.08</time>
   <time name="total">   47.67   47.73</time>
   <energy>
    <i name="e_fr_energy">   -303.64707669 </i>
    <i name="e_wo_entrp">   -303.62535494 </i>
    <i name="e_0_energy">   -303.63983611 </i>
   </energy>
  </scstep>
  <scstep>
   <time name="dav">   47.15   47.21</time>
   <time name="total">   47.81   47.87</time>
   <energy>
    <i name="e_fr_energy">   -303.64490721 </i>
    <i name="e_wo_entrp">   -303.62298875 </i>
    <i name="e_0_energy">   -303.63760106 </i>
   </energy>
  </scstep>
  <scstep>
   <time name="dav">   46.08   46.13</time>
   <time name="total">   46.74   46.79</time>
   <energy>
    <i name="e_fr_energy">   -303.64437952 </i>
    <i name="e_wo_entrp">   -303.62253732 </i>
    <i name="e_0_energy">   -303.63709879 </i>
   </energy>
  </scstep>
  <scstep>
   <time name="dav">   39.31   39.35</time>
   <time name="total">   39.96   40.01</time>
   <energy>
    <i name="e_fr_energy">   -303.64396431 </i>
    <i name="e_wo_entrp">   -303.62204545 </i>
    <i name="e_0_energy">   -303.63665803 </i>
   </energy>
  </scstep>
  <scstep>
   <time name="dav">   33.39   33.43</time>
   <time name="total">   34.05   34.09</time>
   <energy>
    <i name="e_fr_energy">   -303.64363454 </i>
    <i name="e_wo_entrp">   -303.62167626 </i>
    <i name="e_0_energy">   -303.63631511 </i>
   </energy>
  </scstep>
  <scstep>
   <time name="dav">   30.83   30.87</time>
   <time name="total">   31.48   31.53</time>
   <energy>
    <i name="e_fr_energy">   -303.64343975 </i>
    <i name="e_wo_entrp">   -303.62145131 </i>
    <i name="e_0_energy">   -303.63611027 </i>
   </energy>
  </scstep>
  <scstep>
   <time name="dav">   31.85   31.89</time>
   <time name="total">   31.92   31.96</time>
   <energy>
    <i name="alphaZ">   1146.37395419 </i>
    <i name="ewald"> -10898.88855618 </i>
    <i name="hartreedc">  -3184.65573992 </i>
    <i name="XCdc">   -828.59061060 </i>
    <i name="pawpsdc">  18975.05698351 </i>
    <i name="pawaedc"> -17533.22577292 </i>
    <i name="eentropy">     -0.02198485 </i>
    <i name="bandstr">   -768.16988646 </i>
    <i name="atom">  12788.47826598 </i>
    <i name="e_fr_energy">   -303.64334726 </i>
    <i name="e_wo_entrp">   -303.62136241 </i>
    <i name="e_0_energy">   -303.63601898 </i>
   </energy>
  </scstep>
  <structure>
   <crystal>
    <varray name="basis" >
     <v>      -3.16000000      -3.16000000      -3.16000000 </v>
     <v>       1.58000000       1.58000000      -7.90000000 </v>
     <v>       7.90000000      -7.90000000      -1.58000000 </v>
    </varray>
    <i name="volume">    473.31744000 </i>
    <varray name="rec_basis" >
     <v>      -0.13713080      -0.12658228      -0.05274262 </v>
     <v>       0.04219409       0.06329114      -0.10548523 </v>
     <v>       0.06329114      -0.06329114       0.00000000 </v>
    </varray>
   </crystal>
   <varray name="positions" >
    <v>       0.96666667       0.93333333       0.40000000 </v>
    <v>       0.63333333       0.26666667       0.40000000 </v>
    <v>       0.50000000       0.00000000       0.00000000 </v>
    <v>       0.00000000       0.00000000       0.00000000 </v>
    <v>       0.10000000       0.20000000       0.80000000 </v>
    <v>       0.03333333       0.06666667       0.60000000 </v>
    <v>       0.90000000       0.80000000       0.20000000 </v>
    <v>       0.73333333       0.46666667       0.20000000 </v>
    <v>       0.66666667       0.33333333       0.00000000 </v>
    <v>       0.36666667       0.73333333       0.60000000 </v>
    <v>       0.13333333       0.26666667       0.40000000 </v>
    <v>       0.83333333       0.66666667       0.00000000 </v>
    <v>       0.93333333       0.86666667       0.80000000 </v>
    <v>       0.56666667       0.13333333       0.20000000 </v>
    <v>       0.40000000       0.80000000       0.20000000 </v>
    <v>       0.43333333       0.86666667       0.80000000 </v>
    <v>       0.30000000       0.60000000       0.40000000 </v>
    <v>       0.86666667       0.73333333       0.60000000 </v>
    <v>       0.46666667       0.93333333       0.40000000 </v>
    <v>       0.16666667       0.33333333       0.00000000 </v>
    <v>       0.26666667       0.53333333       0.80000000 </v>
    <v>       0.20000000       0.40000000       0.60000000 </v>
    <v>       0.06666667       0.13333333       0.20000000 </v>
    <v>       0.76666667       0.53333333       0.80000000 </v>
    <v>       0.70000000       0.40000000       0.60000000 </v>
    <v>       0.60000000       0.20000000       0.80000000 </v>
    <v>       0.53333333       0.06666667       0.60000000 </v>
    <v>       0.33333333       0.66666667       0.00000000 </v>
    <v>       0.23333333       0.46666667       0.20000000 </v>
   </varray>
  </structure>
  <varray name="forces" >
   <v>      -0.11075464       0.29703055      -0.04563358 </v>
   <v>       0.33651703       0.00767994      -0.00907578 </v>
   <v>      -0.13196556       0.31666477      -0.23306569 </v>
   <v>       0.21882754       0.04828684      -0.06749215 </v>
   <v>       0.03101058       0.72965642      -0.60498530 </v>
   <v>      -0.26757434       0.38172203      -0.34478886 </v>
   <v>      -0.15749134      -0.73171231       0.19435511 </v>
   <v>      -0.02156545       0.10992397       0.00150028 </v>
   <v>       0.10467169       0.61760230      -0.58937122 </v>
   <v>      -0.01927225      -0.33949146       0.39345239 </v>
   <v>       0.02545796       0.21175088      -0.86948054 </v>
   <v>       0.10838361      -0.55059656       0.52315087 </v>
   <v>       0.26610580       0.42289111       0.05774913 </v>
   <v>      -0.03596562       0.31688554      -0.15446393 </v>
   <v>      -0.68980927      -0.06904681       0.88907208 </v>
   <v>      -1.02906962      -0.18339260       0.60542410 </v>
   <v>       0.13338241      -0.13415012       0.14454149 </v>
   <v>       0.07826814       0.17204242       0.41430299 </v>
   <v>       0.49777824      -0.50571829       0.45684878 </v>
   <v>       0.03308399      -0.16273082      -0.42729850 </v>
   <v>      -0.50102027       0.00922537      -0.23971337 </v>
   <v>      -0.39612841      -0.37430552       0.45614772 </v>
   <v>       0.68689255      -0.20371072      -0.71090005 </v>
   <v>      -0.11456993      -0.20443572       0.53442235 </v>
   <v>       0.77954047       0.10371224      -0.10603931 </v>
   <v>       0.06221666       0.25197516      -0.27180809 </v>
   <v>       0.06701244      -0.33237363      -0.40103370 </v>
   <v>      -0.19030483      -0.39234461       0.59227515 </v>
   <v>       0.23634242       0.18695964      -0.18809238 </v>
  </varray>
  <varray name="stress" >
   <v>     -11.29885818      -2.20471838       1.23138748 </v>
   <v>      -2.20471835     -17.63236930      -1.60340437 </v>
   <v>       1.23138744      -1.60340436     -18.14684880 </v>
  </varray>
  <energy>
   <i name="e_fr_energy">   -303.64334726 </i>
   <i name="e_wo_entrp">   -303.63601898 </i>
   <i name="e_0_energy">     -0.02198485 </i>
  </energy>
  <time name="totalsc"> 2575.78 2579.58</time>
 </calculation>
 <calculation>
  <scstep>
   <time name="dav">   32.99   33.03</time>
   <time name="total">   33.64   33.68</time>
   <energy>
    <i name="alphaZ">   1173.31797116 </i>
    <i name="ewald"> -11035.00020812 </i>
    <i name="hartreedc">  -3161.06537477 </i>
    <i name="XCdc">   -825.67022397 </i>
    <i name="pawpsdc">  18971.11073860 </i>
    <i name="pawaedc"> -17529.25964276 </i>
    <i name="eentropy">     -0.02042951 </i>
    <i name="bandstr">   -686.11588741 </i>
    <i name="atom">  12788.47826598 </i>
    <i name="e_fr_energy">   -304.22479080 </i>
    <i name="e_wo_entrp">   -304.20436129 </i>
    <i name="e_0_energy">   -304.21798097 </i>
   </energy>
  </scstep>
  <scstep>
   <time name="dav">   51.79   51.84</time>
   <time name="total">   52.45   52.50</time>
   <energy>
    <i name="e_fr_energy">   -305.59669051 </i>
    <i name="e_wo_entrp">   -305.58280349 </i>
    <i name="e_0_energy">   -305.59206150 </i>
   </energy>
  </scstep>
  <scstep>
   <time name="dav">   51.22   51.28</time>
   <time name="total">   51.87   51.94</time>
   <energy>
    <i name="e_fr_energy">   -304.52425348 </i>
    <i name="e_wo_entrp">   -304.50508533 </i>
    <i name="e_0_energy">   -304.51786409 </i>
   </energy>
  </scstep>
  <scstep>
   <time name="dav">   49.10   49.15</time>
   <time name="total">   49.75   49.80</time>
   <energy>
    <i name="e_fr_energy">   -304.46541137 </i>
    <i name="e_wo_entrp">   -304.44233134 </i>
    <i name="e_0_energy">   -304.45771802 </i>
   </energy>
  </scstep>
  <scstep>
   <time name="dav">   48.42   48.46</time>
   <time name="total">   49.07   49.13</time>
   <energy>
    <i name="e_fr_energy">   -304.26868985 </i>
    <i name="e_wo_entrp">   -304.24583314 </i>
    <i name="e_0_energy">   -304.26107095 </i>
   </energy>
  </scstep>
  <scstep>
   <time name="dav">   50.60   50.65</time>
   <time name="total">   51.25   51.30</time>
   <energy>
    <i name="e_fr_energy">   -304.15020227 </i>
    <i name="e_wo_entrp">   -304.12952346 </i>
    <i name="e_0_energy">   -304.14330933 </i>
   </energy>
  </scstep>
  <scstep>
   <time name="dav">   50.91   50.96</time>
   <time name="total">   51.56   51.62</time>
   <energy>
    <i name="e_fr_energy">   -304.16153583 </i>
    <i name="e_wo_entrp">   -304.13772933 </i>
    <i name="e_0_energy">   -304.15360033 </i>
   </energy>
  </scstep>
  <scstep>
   <time name="dav">   51.04   51.15</time>
   <time name="total">   51.69   51.81</time>
   <energy>
    <i name="e_fr_energy">   -304.13386761 </i>
    <i name="e_wo_entrp">   -304.11031268 </i>
    <i name="e_0_energy">   -304.12601596 </i>
   </energy>
  </scstep>
  <scstep>
   <time name="dav">   50.49   50.54</time>
   <time name="total">   51.15   51.21</time>
   <energy>
    <i name="e_fr_energy">   -304.11076225 </i>
    <i name="e_wo_entrp">   -304.08750944 </i>
    <i name="e_0_energy">   -304.10301132 </i>
   </energy>
  </scstep>
  <scstep>
   <time name="dav">   49.16   49.21</time>
   <time name="total">   49.82   49.87</time>
   <energy>
    <i name="e_fr_energy">   -304.10669742 </i>
    <i name="e_wo_entrp">   -304.08390715 </i>
    <i name="e_0_energy">   -304.09910066 </i>
   </energy>
  </scstep>
  <scstep>
   <time name="dav">   46.96   47.05</time>
   <time name="total">   47.60   47.72</time>
   <energy>
    <i name="e_fr_energy">   -304.11029464 </i>
    <i name="e_wo_entrp">   -304.08687630 </i>
    <i name="e_0_energy">   -304.10248853 </i>
   </energy>
  </scstep>
  <scstep>
   <time name="dav">   49.50   49.55</time>
   <time name="total">   50.16   50.21</time>
   <energy>
    <i name="e_fr_energy">   -304.10955838 </i>
    <i name="e_wo_entrp">   -304.08666231 </i>
    <i name="e_0_energy">   -304.10192635 </i>
   </energy>
  </scstep>
  <scstep>
   <time name="dav">   46.60   46.64</time>
   <time name="total">   47.25   47.31</time>
   <energy>
    <i name="e_fr_energy">   -304.10793552 </i>
    <i name="e_wo_entrp">   -304.08475196 </i>
    <i name="e_0_energy">   -304.10020767 </i>
   </energy>
  </scstep>
  <scstep>
   <time name="dav">   45.31   45.36</time>
   <time name="total">   45.96   46.01</time>
   <energy>
    <i name="e_fr_energy">   -304.10601340 </i>
    <i name="e_wo_entrp">   -304.08287080 </i>
    <i name="e_0_energy">   -304.09829920 </i>
   </energy>
  </scstep>
  <scstep>
   <time name="dav">   45.41   45.46</time>
   <time name="total">   46.06   46.11</time>
   <energy>
    <i name="e_fr_energy">   -304.10566080 </i>
    <i name="e_wo_entrp">   -304.08253327 </i>
    <i name="e_0_energy">   -304.09795162 </i>
   </energy>
  </scstep>
  <scstep>
   <time name="dav">   43.79   43.88</time>
   <time name="total">   44.45   44.55</time>
   <energy>
    <i name="e_fr_energy">   -304.10562216 </i>
    <i name="e_wo_entrp">   -304.08241488 </i>
    <i name="e_0_energy">   -304.09788640 </i>
   </energy>
  </scstep>
  <scstep>
   <time name="dav">   29.74   29.78</time>
   <time name="total">   29.81   29.86</time>
   <energy>
    <i name="alphaZ">   1173.31797116 </i>
    <i name="ewald"> -11035.00020812 </i>
    <i name="hartreedc">  -3115.38149942 </i>
    <i name="XCdc">   -827.07397656 </i>
    <i name="pawpsdc">  19211.63597307 </i>
    <i name="pawaedc"> -17770.46391180 </i>
    <i name="eentropy">     -0.02314791 </i>
    <i name="bandstr">   -729.59502028 </i>
    <i name="atom">  12788.47826598 </i>
    <i name="e_fr_energy">   -304.10555388 </i>
    <i name="e_wo_entrp">   -304.08240596 </i>
    <i name="e_0_energy">   -304.09783791 </i>
   </energy>
  </scstep>
  <structure>
   <crystal>
    <varray name="basis" >
     <v>      -3.14094170      -3.12670363      -3.13124081 </v>
     <v>       1.56473394       1.57082191      -7.82983523 </v>
     <v>       7.86373660      -7.83885840      -1.55490343 </v>
    </varray>
    <i name="volume">    462.44820127 </i>
    <varray name="rec_basis" >
     <v>      -0.13800345      -0.12788189      -0.05323463 </v>
     <v>       0.04256397       0.06380631      -0.10640969 </v>
     <v>       0.06357511      -0.06377496      -0.00008953 </v>
    </varray>
   </crystal>
   <varray name="positions" >
    <v>       0.96570162       0.93424704       0.39875490 </v>
    <v>       0.63108328       0.26742130       0.40100405 </v>
    <v>       0.49953228       0.00188430      -0.00136982 </v>
    <v>      -0.00157081       0.00093633       0.00052072 </v>
    <v>       0.09687843       0.20536971       0.79786680 </v>
    <v>       0.03364973       0.06904212       0.59801748 </v>
    <v>       0.90501569       0.79645621       0.20175329 </v>
    <v>       0.73280091       0.46695077       0.19959852 </v>
    <v>       0.66370234       0.33843138      -0.00156615 </v>
    <v>       0.36786621       0.73025528       0.60097774 </v>
    <v>       0.13408416       0.27178973       0.39943119 </v>
    <v>       0.83464749       0.66254388       0.00201209 </v>
    <v>       0.92884350       0.86820569       0.79952128 </v>
    <v>       0.56536251       0.13501373       0.19892263 </v>
    <v>       0.40272292       0.79386064       0.19810461 </v>
    <v>       0.43972065       0.86093105       0.79741787 </v>
    <v>       0.29956903       0.59912635       0.40081687 </v>
    <v>       0.86404411       0.73190961       0.59971368 </v>
    <v>       0.46529942       0.93047761       0.40306401 </v>
    <v>       0.16852878       0.33507828       0.00059789 </v>
    <v>       0.27053480       0.53356152       0.79844205 </v>
    <v>       0.20374573       0.39572950       0.59993337 </v>
    <v>       0.06517533       0.13772723       0.20271931 </v>
    <v>       0.76731323       0.52975629       0.80027439 </v>
    <v>       0.69447938       0.40244309       0.60206353 </v>
    <v>       0.59874127       0.20227921       0.79942060 </v>
    <v>       0.53594011       0.06782905       0.60121946 </v>
    <v>       0.33548121       0.66206731       0.00061689 </v>
    <v>       0.23110668       0.46867579       0.20015078 </v>
   </varray>
  </structure>
  <varray name="forces" >
   <v>      -0.00551653       0.21237484      -0.01036710 </v>
   <v>       0.12446627       0.00086127      -0.02727948 </v>
   <v>      -0.20808021       0.19246283      -0.00014907 </v>
   <v>       0.08290196       0.06000644      -0.19742869 </v>
   <v>      -0.03689258       0.38019034      -0.26840562 </v>
   <v>      -0.15190733       0.20539355      -0.23949818 </v>
   <v>      -0.03670350      -0.45815407       0.22167537 </v>
   <v>       0.07918411      -0.12878908       0.02069383 </v>
   <v>       0.01576072       0.45587200      -0.30408779 </v>
   <v>      -0.09514674      -0.21642543       0.30573186 </v>
   <v>       0.11510841       0.26387502      -0.65016159 </v>
   <v>       0.01487871      -0.22017601       0.05874057 </v>
   <v>       0.01935348       0.19130453      -0.05677493 </v>
   <v>       0.07783671       0.12696401      -0.03700046 </v>
   <v>      -0.32555337      -0.06732551       0.30389355 </v>
   <v>      -0.29996183       0.07685513       0.37808999 </v>
   <v>       0.17291753      -0.14317749       0.09146165 </v>
   <v>      -0.02503211       0.21010730       0.40201505 </v>
   <v>       0.16487819      -0.40961353       0.38440892 </v>
   <v>       0.00245751      -0.14301243      -0.31582796 </v>
   <v>      -0.39360155      -0.01233264      -0.10929071 </v>
   <v>      -0.24972277      -0.22371386       0.33045718 </v>
   <v>       0.41404698      -0.12130682      -0.47590095 </v>
   <v>      -0.09447475      -0.17134431       0.41701903 </v>
   <v>       0.65099594       0.04925157      -0.12277681 </v>
   <v>      -0.01043066       0.28121038      -0.25194510 </v>
   <v>       0.05069244      -0.26461405      -0.27706674 </v>
   <v>      -0.17637308      -0.28594153       0.53309935 </v>
   <v>       0.12391807       0.15919758      -0.10332517 </v>
  </varray>
  <varray name="stress" >
   <v>      29.37418980      -1.78371270       0.34532637 </v>
   <v>      -1.78371268      24.73434803      -0.53817953 </v>
   <v>       0.34532648      -0.53817953      25.28384706 </v>
  </varray>
  <energy>
   <i name="e_fr_energy">   -304.10555388 </i>
   <i name="e_wo_entrp">   -304.09783791 </i>
   <i name="e_0_energy">     -0.02314791 </i>
  </energy>
  <time name="totalsc">  823.03  824.12</time>
 </calculation>
 <calculation>
  <scstep>
   <time name="dav">   33.17   33.21</time>
   <time name="total">   33.82   33.86</time>
   <energy>
    <i name="alphaZ">   1183.42358518 </i>
    <i name="ewald"> -11083.68779451 </i>
    <i name="hartreedc">  -3108.04286878 </i>
    <i name="XCdc">   -825.99696219 </i>
    <i name="pawpsdc">  19210.83702543 </i>
    <i name="pawaedc"> -17769.62061481 </i>
    <i name="eentropy">     -0.02214183 </i>
    <i name="bandstr">   -699.51625467 </i>
    <i name="atom">  12788.47826598 </i>
    <i name="e_fr_energy">   -304.14776020 </i>
    <i name="e_wo_entrp">   -304.12561837 </i>
    <i name="e_0_energy">   -304.14037959 </i>
   </energy>
  </scstep>
  <scstep>
   <time name="dav">   50.87   50.92</time>
   <time name="total">   51.52   51.58</time>
   <energy>
    <i name="e_fr_energy">   -304.31948333 </i>
    <i name="e_wo_entrp">   -304.29801056 </i>
    <i name="e_0_energy">   -304.31232574 </i>
   </energy>
  </scstep>
  <scstep>
   <time name="dav">   51.03   51.08</time>
   <time name="total">   51.69   51.74</time>
   <energy>
    <i name="e_fr_energy">   -304.19300245 </i>
    <i name="e_wo_entrp">   -304.17126065 </i>
    <i name="e_0_energy">   -304.18575518 </i>
   </energy>
  </scstep>
  <scstep>
   <time name="dav">   49.55   49.60</time>
   <time name="total">   50.21   50.26</time>
   <energy>
    <i name="e_fr_energy">   -304.18104367 </i>
    <i name="e_wo_entrp">   -304.15795618 </i>
    <i name="e_0_energy">   -304.17334784 </i>
   </energy>
  </scstep>
  <scstep>
   <time name="dav">   47.85   47.90</time>
   <time name="total">   48.49   48.54</time>
   <energy>
    <i name="e_fr_energy">   -304.15693832 </i>
    <i name="e_wo_entrp">   -304.13443422 </i>
    <i name="e_0_energy">   -304.14943695 </i>
   </energy>
  </scstep>
  <scstep>
   <time name="dav">   49.49   49.54</time>
   <time name="total">   50.14   50.21</time>
   <energy>
    <i name="e_fr_energy">   -304.14062930 </i>
    <i name="e_wo_entrp">   -304.11860402 </i>
    <i name="e_0_energy">   -304.13328754 </i>
   </energy>
  </scstep>
  <scstep>
   <time name="dav">   51.53   51.58</time>
   <time name="total">   52.18   52.24</time>
   <energy>
    <i name="e_fr_energy">   -304.14135367 </i>
    <i name="e_wo_entrp">   -304.11866222 </i>
    <i name="e_0_energy">   -304.13378985 </i>
   </energy>
  </scstep>
  <scstep>
   <time name="dav">   48.81   48.86</time>
   <time name="total">   49.46   49.52</time>
   <energy>
    <i name="e_fr_energy">   -304.13889006 </i>
    <i name="e_wo_entrp">   -304.11620733 </i>
    <i name="e_0_energy">   -304.13132915 </i>
   </energy>
  </scstep>
  <scstep>
   <time name="dav">   45.14   45.18</time>
   <time name="total">   45.79   45.84</time>
   <energy>
    <i name="e_fr_energy">   -304.13711185 </i>
    <i name="e_wo_entrp">   -304.11457301 </i>
    <i name="e_0_energy">   -304.12959891 </i>
   </energy>
  </scstep>
  <scstep>
   <time name="dav">   46.87   46.92</time>
   <time name="total">   47.53   47.58</time>
   <energy>
    <i name="e_fr_energy">   -304.13686997 </i>
    <i name="e_wo_entrp">   -304.11440324 </i>
    <i name="e_0_energy">   -304.12938106 </i>
   </energy>
  </scstep>
  <scstep>
   <time name="dav">   44.22   44.26</time>
   <time name="total">   44.87   44.92</time>
   <energy>
    <i name="e_fr_energy">   -304.13704080 </i>
    <i name="e_wo_entrp">   -304.11445443 </i>
    <i name="e_0_energy">   -304.12951201 </i>
   </energy>
  </scstep>
  <scstep>
   <time name="dav">   45.16   45.20</time>
   <time name="total">   45.81   45.87</time>
   <energy>
    <i name="e_fr_energy">   -304.13719554 </i>
    <i name="e_wo_entrp">   -304.11471477 </i>
    <i name="e_0_energy">   -304.12970195 </i>
   </energy>
  </scstep>
  <scstep>
   <time name="dav">   46.98   47.02</time>
   <time name="total">   47.63   47.68</time>
   <energy>
    <i name="e_fr_energy">   -304.13733979 </i>
    <i name="e_wo_entrp">   -304.11483474 </i>
    <i name="e_0_energy">   -304.12983811 </i>
   </energy>
  </scstep>
  <scstep>
   <time name="dav">   42.65   42.70</time>
   <time name="total">   43.31   43.37</time>
   <energy>
    <i name="e_fr_energy">   -304.13718690 </i>
    <i name="e_wo_entrp">   -304.11464040 </i>
    <i name="e_0_energy">   -304.12967140 </i>
   </energy>
  </scstep>
  <scstep>
   <time name="dav">   33.03   33.10</time>
   <time name="total">   33.11   33.17</time>
   <energy>
    <i name="alphaZ">   1183.42358518 </i>
    <i name="ewald"> -11083.68779451 </i>
    <i name="hartreedc">  -3091.62885524 </i>
    <i name="XCdc">   -826.50817111 </i>
    <i name="pawpsdc">  19409.18912689 </i>
    <i name="pawaedc"> -17968.24689031 </i>
    <i name="eentropy">     -0.02250344 </i>
    <i name="bandstr">   -715.13387541 </i>
    <i name="atom">  12788.47826598 </i>
    <i name="e_fr_energy">   -304.13711197 </i>
    <i name="e_wo_entrp">   -304.11460853 </i>
    <i name="e_0_energy">   -304.12961082 </i>
   </energy>
  </scstep>
  <structure>
   <crystal>
    <varray name="basis" >
     <v>      -3.13394594      -3.11448148      -3.12068414 </v>
     <v>       1.55913020       1.56745290      -7.80407974 </v>
     <v>       7.85042534      -7.81641507      -1.54569119 </v>
    </varray>
    <i name="volume">    458.49921539 </i>
    <varray name="rec_basis" >
     <v>      -0.13832679      -0.12836535      -0.05341772 </v>
     <v>       0.04270135       0.06399752      -0.10675313 </v>
     <v>       0.06367991      -0.06395456      -0.00012308 </v>
    </varray>
   </crystal>
   <varray name="positions" >
    <v>       0.96534265       0.93458517       0.39829482 </v>
    <v>       0.63025205       0.26770073       0.40137425 </v>
    <v>       0.49935738       0.00258182      -0.00187565 </v>
    <v>      -0.00215131       0.00128301       0.00071265 </v>
    <v>       0.09572059       0.20735754       0.79707863 </v>
    <v>       0.03376423       0.06992146       0.59728569 </v>
    <v>       0.90687439       0.79514449       0.20240204 </v>
    <v>       0.73260327       0.46705589       0.19945009 </v>
    <v>       0.66260352       0.34031870      -0.00214487 </v>
    <v>       0.36831121       0.72911576       0.60133882 </v>
    <v>       0.13436208       0.27368659       0.39922208 </v>
    <v>       0.83513632       0.66101764       0.00275510 </v>
    <v>       0.92718106       0.86877528       0.79934318 </v>
    <v>       0.56487840       0.13563574       0.19852450 </v>
    <v>       0.40372693       0.79158736       0.19740457 </v>
    <v>       0.44208009       0.85880734       0.79646548 </v>
    <v>       0.29941060       0.59880294       0.40111830 </v>
    <v>       0.86307266       0.73138230       0.59960684 </v>
    <v>       0.46479750       0.92942052       0.40419483 </v>
    <v>       0.16921927       0.33572452       0.00081959 </v>
    <v>       0.27196430       0.53364601       0.79786795 </v>
    <v>       0.20513144       0.39414844       0.59990940 </v>
    <v>       0.06462817       0.13935439       0.20372381 </v>
    <v>       0.76755238       0.52843190       0.80037544 </v>
    <v>       0.69243941       0.40334766       0.60282419 </v>
    <v>       0.59827484       0.20312300       0.79920651 </v>
    <v>       0.53690709       0.06825969       0.60167091 </v>
    <v>       0.33627644       0.66036450       0.00084480 </v>
    <v>       0.23028303       0.46941961       0.20020601 </v>
   </varray>
  </structure>
  <varray name="forces" >
   <v>       0.02899084       0.17419776       0.01514746 </v>
   <v>       0.03702934      -0.00646954      -0.04595886 </v>
   <v>      -0.23500586       0.14235553       0.09044517 </v>
   <v>       0.03638323       0.05804900      -0.23923372 </v>
   <v>      -0.06084316       0.23906603      -0.14883033 </v>
   <v>      -0.10285837       0.13856536      -0.20309815 </v>
   <v>       0.02375683      -0.34310938       0.22797561 </v>
   <v>       0.12877131      -0.23638259       0.03602866 </v>
   <v>      -0.02110966       0.37936950      -0.17793347 </v>
   <v>      -0.12289727      -0.15910319       0.28565659 </v>
   <v>       0.16554291       0.28286437      -0.55616581 </v>
   <v>      -0.03345225      -0.10620512      -0.10093199 </v>
   <v>      -0.08328158       0.10182923      -0.09967138 </v>
   <v>       0.11155238       0.05642306       0.00749943 </v>
   <v>      -0.17814438      -0.05089352       0.06759047 </v>
   <v>      -0.00820427       0.18458352       0.27405815 </v>
   <v>       0.20166793      -0.15125733       0.04945865 </v>
   <v>      -0.06920456       0.21099732       0.39594780 </v>
   <v>       0.03757259      -0.37057851       0.34894168 </v>
   <v>      -0.02638948      -0.12400203      -0.26004452 </v>
   <v>      -0.33822774      -0.00466465      -0.05534696 </v>
   <v>      -0.19633625      -0.17089155       0.27810706 </v>
   <v>       0.31106442      -0.08818333      -0.38539963 </v>
   <v>      -0.09514256      -0.15246968       0.35134610 </v>
   <v>       0.58637552       0.02615911      -0.12813693 </v>
   <v>      -0.04393702       0.29612075      -0.23972657 </v>
   <v>       0.04064008      -0.24072675      -0.22205976 </v>
   <v>      -0.17211264      -0.21961214       0.50255176 </v>
   <v>       0.07779970       0.13396880      -0.06821650 </v>
  </varray>
  <varray name="stress" >
   <v>      44.78267631      -1.54355464       0.23302715 </v>
   <v>      -1.54355464      41.21906250       0.12842523 </v>
   <v>       0.23302715       0.12842516      41.95218430 </v>
  </varray>
  <energy>
   <i name="e_fr_energy">   -304.13711197 </i>
   <i name="e_wo_entrp">   -304.12961082 </i>
   <i name="e_0_energy">     -0.02250344 </i>
  </energy>
  <time name="totalsc">  714.99  715.84</time>
 </calculation>
 <calculation>
  <scstep>
   <time name="dav">   33.39   33.60</time>
   <time name="total">   34.02   34.28</time>
   <energy>
    <i name="alphaZ">   1169.65197270 </i>
    <i name="ewald"> -11068.15872552 </i>
    <i name="hartreedc">  -3052.99197844 </i>
    <i name="XCdc">   -828.14394138 </i>
    <i name="pawpsdc">  19409.18197940 </i>
    <i name="pawaedc"> -17968.22651108 </i>
    <i name="eentropy">     -0.02069220 </i>
    <i name="bandstr">   -754.14564011 </i>
    <i name="atom">  12788.47826598 </i>
    <i name="e_fr_energy">   -304.37527065 </i>
    <i name="e_wo_entrp">   -304.35457845 </i>
    <i name="e_0_energy">   -304.36837325 </i>
   </energy>
  </scstep>
  <scstep>
   <time name="dav">   50.12   50.17</time>
   <time name="total">   50.77   50.82</time>
   <energy>
    <i name="e_fr_energy">   -304.79505142 </i>
    <i name="e_wo_entrp">   -304.77460490 </i>
    <i name="e_0_energy">   -304.78823592 </i>
   </energy>
  </scstep>
  <scstep>
   <time name="dav">   51.59   51.65</time>
   <time name="total">   52.25   52.31</time>
   <energy>
    <i name="e_fr_energy">   -304.49400705 </i>
    <i name="e_wo_entrp">   -304.47373261 </i>
[...]
       <r>    4.7360    1.0000 </r>
       <r>    4.7642    1.0000 </r>
       <r>    4.8196    1.0000 </r>
       <r>    4.9199    1.0000 </r>
       <r>    4.9541    1.0000 </r>
       <r>    4.9887    1.0000 </r>
       <r>    5.0573    1.0000 </r>
       <r>    5.0958    1.0000 </r>
       <r>    5.1686    1.0000 </r>
       <r>    5.2551    1.0000 </r>
       <r>    5.2944    1.0000 </r>
       <r>    5.3063    1.0000 </r>
       <r>    5.3888    1.0000 </r>
       <r>    5.4162    1.0000 </r>
       <r>    5.4673    1.0000 </r>
       <r>    5.5435    1.0000 </r>
       <r>    5.5943    1.0000 </r>
       <r>    5.6184    1.0000 </r>
       <r>    5.6896    1.0000 </r>
       <r>    5.7227    1.0000 </r>
       <r>    5.8170    1.0000 </r>
       <r>    5.8802    1.0000 </r>
       <r>    5.9317    1.0001 </r>
       <r>    5.9713    1.0002 </r>
       <r>    6.0059    1.0004 </r>
       <r>    6.0741    1.0020 </r>
       <r>    6.1190    1.0048 </r>
       <r>    6.1832    1.0133 </r>
       <r>    6.2182    1.0205 </r>
       <r>    6.2647    1.0309 </r>
       <r>    6.3163    1.0349 </r>
       <r>    6.3701    1.0107 </r>
       <r>    6.3968    0.9798 </r>
       <r>    6.4274    0.9241 </r>
       <r>    6.4753    0.7905 </r>
       <r>    6.5399    0.5393 </r>
       <r>    6.6106    0.2534 </r>
       <r>    6.6488    0.1311 </r>
       <r>    6.7186   -0.0010 </r>
       <r>    6.7721   -0.0333 </r>
       <r>    6.8177   -0.0336 </r>
       <r>    6.8663   -0.0237 </r>
       <r>    6.9770   -0.0050 </r>
       <r>    7.1238   -0.0002 </r>
       <r>    7.2102   -0.0000 </r>
       <r>    7.3399   -0.0000 </r>
       <r>    7.4499   -0.0000 </r>
       <r>    7.4660   -0.0000 </r>
       <r>    7.4990   -0.0000 </r>
       <r>    7.7489   -0.0000 </r>
       <r>    7.8324   -0.0000 </r>
       <r>    7.9831   -0.0000 </r>
       <r>    8.0550   -0.0000 </r>
       <r>    8.1898   -0.0000 </r>
       <r>    8.2582   -0.0000 </r>
       <r>    8.4526   -0.0000 </r>
       <r>    8.5686   -0.0000 </r>
       <r>    8.5858   -0.0000 </r>
       <r>    8.6579   -0.0000 </r>
       <r>    8.6812   -0.0000 </r>
       <r>    8.7361   -0.0000 </r>
      </set>
     </set>
    </set>
   </array>
  </eigenvalues>
  <separator name="orbital magnetization" >
   <v name="MAGDIPOLOUT">      0.00000000      0.00000000      0.00000000</v>
  </separator>
  <dos>
   <i name="efermi">      6.54922269 </i>
   <total>
    <array>
     <dimension dim="1">gridpoints</dimension>
     <dimension dim="2">spin</dimension>
     <field>energy</field>
     <field>total</field>
     <field>integrated</field>
     <set>
      <set comment="spin 1">
       <r>   -50.3429     0.0000     0.0000 </r>
       <r>   -50.1364     0.0000     0.0000 </r>
       <r>   -49.9298     0.0000     0.0000 </r>
       <r>   -49.7232     0.0000     0.0000 </r>
       <r>   -49.5166     0.0000     0.0000 </r>
       <r>   -49.3100    -0.0000    -0.0000 </r>
       <r>   -49.1034    -0.0000    -0.0000 </r>
       <r>   -48.8968    -0.0000    -0.0000 </r>
       <r>   -48.6902    -0.0000    -0.0000 </r>
       <r>   -48.4836    -0.0000    -0.0000 </r>
       <r>   -48.2770    -0.0000    -0.0000 </r>
       <r>   -48.0705    -0.0044    -0.0009 </r>
       <r>   -47.8639    -0.2961    -0.0621 </r>
       <r>   -47.6573    -0.0361    -0.0695 </r>
       <r>   -47.4507    16.9660     3.4355 </r>
       <r>   -47.2441    29.7411     9.5797 </r>
       <r>   -47.0375    12.6942    12.2022 </r>
       <r>   -46.8309    -0.8232    12.0321 </r>
       <r>   -46.6243    -0.1542    12.0003 </r>
       <r>   -46.4177    -0.0013    12.0000 </r>
       <r>   -46.2111    -0.0000    12.0000 </r>
       <r>   -46.0046    -0.0000    12.0000 </r>
       <r>   -45.7980    -0.0000    12.0000 </r>
       <r>   -45.5914     0.0000    12.0000 </r>
       <r>   -45.3848     0.0000    12.0000 </r>
       <r>   -45.1782     0.0000    12.0000 </r>
       <r>   -44.9716     0.0000    12.0000 </r>
       <r>   -44.7650     0.0000    12.0000 </r>
       <r>   -44.5584     0.0000    12.0000 </r>
       <r>   -44.3518     0.0000    12.0000 </r>
       <r>   -44.1452     0.0000    12.0000 </r>
       <r>   -43.9386     0.0000    12.0000 </r>
       <r>   -43.7321     0.0000    12.0000 </r>
       <r>   -43.5255     0.0000    12.0000 </r>
       <r>   -43.3189     0.0000    12.0000 </r>
       <r>   -43.1123     0.0000    12.0000 </r>
       <r>   -42.9057     0.0000    12.0000 </r>
       <r>   -42.6991     0.0000    12.0000 </r>
       <r>   -42.4925     0.0000    12.0000 </r>
       <r>   -42.2859     0.0000    12.0000 </r>
       <r>   -42.0793     0.0000    12.0000 </r>
       <r>   -41.8727     0.0000    12.0000 </r>
       <r>   -41.6662     0.0000    12.0000 </r>
       <r>   -41.4596     0.0000    12.0000 </r>
       <r>   -41.2530     0.0000    12.0000 </r>
       <r>   -41.0464     0.0000    12.0000 </r>
       <r>   -40.8398     0.0000    12.0000 </r>
       <r>   -40.6332     0.0000    12.0000 </r>
       <r>   -40.4266     0.0000    12.0000 </r>
       <r>   -40.2200     0.0000    12.0000 </r>
       <r>   -40.0134     0.0000    12.0000 </r>
       <r>   -39.8068     0.0000    12.0000 </r>
       <r>   -39.6003     0.0000    12.0000 </r>
       <r>   -39.3937     0.0000    12.0000 </r>
       <r>   -39.1871     0.0000    12.0000 </r>
       <r>   -38.9805     0.0000    12.0000 </r>
       <r>   -38.7739     0.0000    12.0000 </r>
       <r>   -38.5673     0.0000    12.0000 </r>
       <r>   -38.3607     0.0000    12.0000 </r>
       <r>   -38.1541     0.0000    12.0000 </r>
       <r>   -37.9475     0.0000    12.0000 </r>
       <r>   -37.7409     0.0000    12.0000 </r>
       <r>   -37.5344     0.0000    12.0000 </r>
       <r>   -37.3278     0.0000    12.0000 </r>
       <r>   -37.1212     0.0000    12.0000 </r>
       <r>   -36.9146     0.0000    12.0000 </r>
       <r>   -36.7080     0.0000    12.0000 </r>
       <r>   -36.5014     0.0000    12.0000 </r>
       <r>   -36.2948     0.0000    12.0000 </r>
       <r>   -36.0882     0.0000    12.0000 </r>
       <r>   -35.8816     0.0000    12.0000 </r>
       <r>   -35.6750     0.0000    12.0000 </r>
       <r>   -35.4685     0.0000    12.0000 </r>
       <r>   -35.2619     0.0000    12.0000 </r>
       <r>   -35.0553     0.0000    12.0000 </r>
       <r>   -34.8487     0.0000    12.0000 </r>
       <r>   -34.6421     0.0000    12.0000 </r>
       <r>   -34.4355     0.0000    12.0000 </r>
       <r>   -34.2289     0.0000    12.0000 </r>
       <r>   -34.0223     0.0000    12.0000 </r>
       <r>   -33.8157     0.0000    12.0000 </r>
       <r>   -33.6091     0.0000    12.0000 </r>
       <r>   -33.4026     0.0000    12.0000 </r>
       <r>   -33.1960     0.0000    12.0000 </r>
       <r>   -32.9894     0.0000    12.0000 </r>
       <r>   -32.7828     0.0000    12.0000 </r>
       <r>   -32.5762     0.0000    12.0000 </r>
       <r>   -32.3696     0.0000    12.0000 </r>
       <r>   -32.1630     0.0000    12.0000 </r>
       <r>   -31.9564     0.0000    12.0000 </r>
       <r>   -31.7498     0.0000    12.0000 </r>
       <r>   -31.5432     0.0000    12.0000 </r>
       <r>   -31.3367     0.0000    12.0000 </r>
       <r>   -31.1301     0.0000    12.0000 </r>
       <r>   -30.9235     0.0000    12.0000 </r>
       <r>   -30.7169     0.0000    12.0000 </r>
       <r>   -30.5103     0.0000    12.0000 </r>
       <r>   -30.3037     0.0000    12.0000 </r>
       <r>   -30.0971     0.0000    12.0000 </r>
       <r>   -29.8905     0.0000    12.0000 </r>
       <r>   -29.6839     0.0000    12.0000 </r>
       <r>   -29.4773     0.0000    12.0000 </r>
       <r>   -29.2708     0.0000    12.0000 </r>
       <r>   -29.0642     0.0000    12.0000 </r>
       <r>   -28.8576     0.0000    12.0000 </r>
       <r>   -28.6510     0.0000    12.0000 </r>
       <r>   -28.4444     0.0000    12.0000 </r>
       <r>   -28.2378     0.0000    12.0000 </r>
       <r>   -28.0312     0.0000    12.0000 </r>
       <r>   -27.8246     0.0000    12.0000 </r>
       <r>   -27.6180     0.0000    12.0000 </r>
       <r>   -27.4114     0.0000    12.0000 </r>
       <r>   -27.2049     0.0000    12.0000 </r>
       <r>   -26.9983     0.0000    12.0000 </r>
       <r>   -26.7917     0.0000    12.0000 </r>
       <r>   -26.5851     0.0000    12.0000 </r>
       <r>   -26.3785     0.0000    12.0000 </r>
       <r>   -26.1719     0.0000    12.0000 </r>
       <r>   -25.9653    -0.0000    12.0000 </r>
       <r>   -25.7587    -0.0000    12.0000 </r>
       <r>   -25.5521    -0.0000    12.0000 </r>
       <r>   -25.3455    -0.0000    12.0000 </r>
       <r>   -25.1390    -0.0000    12.0000 </r>
       <r>   -24.9324    -0.0000    12.0000 </r>
       <r>   -24.7258    -0.0070    11.9986 </r>
       <r>   -24.5192    -0.1805    11.9613 </r>
       <r>   -24.3126     0.5197    12.0686 </r>
       <r>   -24.1060     8.1512    13.7526 </r>
       <r>   -23.8994    15.7723    17.0110 </r>
       <r>   -23.6928    25.2279    22.2228 </r>
       <r>   -23.4862    49.4364    32.4359 </r>
       <r>   -23.2796    45.0890    41.7508 </r>
       <r>   -23.0731    20.1900    45.9219 </r>
       <r>   -22.8665     9.2692    47.8368 </r>
       <r>   -22.6599     1.0163    48.0468 </r>
       <r>   -22.4533    -0.2119    48.0030 </r>
       <r>   -22.2467    -0.0145    48.0000 </r>
       <r>   -22.0401    -0.0001    48.0000 </r>
       <r>   -21.8335    -0.0000    48.0000 </r>
       <r>   -21.6269    -0.0000    48.0000 </r>
       <r>   -21.4203     0.0000    48.0000 </r>
       <r>   -21.2137     0.0000    48.0000 </r>
       <r>   -21.0072     0.0000    48.0000 </r>
       <r>   -20.8006     0.0000    48.0000 </r>
       <r>   -20.5940     0.0000    48.0000 </r>
       <r>   -20.3874     0.0000    48.0000 </r>
       <r>   -20.1808     0.0000    48.0000 </r>
       <r>   -19.9742     0.0000    48.0000 </r>
       <r>   -19.7676     0.0000    48.0000 </r>
       <r>   -19.5610     0.0000    48.0000 </r>
       <r>   -19.3544     0.0000    48.0000 </r>
       <r>   -19.1478     0.0000    48.0000 </r>
       <r>   -18.9413     0.0000    48.0000 </r>
       <r>   -18.7347     0.0000    48.0000 </r>
       <r>   -18.5281     0.0000    48.0000 </r>
       <r>   -18.3215     0.0000    48.0000 </r>
       <r>   -18.1149     0.0000    48.0000 </r>
       <r>   -17.9083     0.0000    48.0000 </r>
       <r>   -17.7017     0.0000    48.0000 </r>
       <r>   -17.4951     0.0000    48.0000 </r>
       <r>   -17.2885     0.0000    48.0000 </r>
       <r>   -17.0819     0.0000    48.0000 </r>
       <r>   -16.8753     0.0000    48.0000 </r>
       <r>   -16.6688     0.0000    48.0000 </r>
       <r>   -16.4622     0.0000    48.0000 </r>
       <r>   -16.2556     0.0000    48.0000 </r>
       <r>   -16.0490     0.0000    48.0000 </r>
       <r>   -15.8424     0.0000    48.0000 </r>
       <r>   -15.6358     0.0000    48.0000 </r>
       <r>   -15.4292     0.0000    48.0000 </r>
       <r>   -15.2226     0.0000    48.0000 </r>
       <r>   -15.0160     0.0000    48.0000 </r>
       <r>   -14.8094     0.0000    48.0000 </r>
       <r>   -14.6029     0.0000    48.0000 </r>
       <r>   -14.3963     0.0000    48.0000 </r>
       <r>   -14.1897     0.0000    48.0000 </r>
       <r>   -13.9831     0.0000    48.0000 </r>
       <r>   -13.7765     0.0000    48.0000 </r>
       <r>   -13.5699     0.0000    48.0000 </r>
       <r>   -13.3633     0.0000    48.0000 </r>
       <r>   -13.1567     0.0000    48.0000 </r>
       <r>   -12.9501     0.0000    48.0000 </r>
       <r>   -12.7435     0.0000    48.0000 </r>
       <r>   -12.5370     0.0000    48.0000 </r>
       <r>   -12.3304     0.0000    48.0000 </r>
       <r>   -12.1238     0.0000    48.0000 </r>
       <r>   -11.9172     0.0000    48.0000 </r>
       <r>   -11.7106     0.0000    48.0000 </r>
       <r>   -11.5040     0.0000    48.0000 </r>
       <r>   -11.2974     0.0000    48.0000 </r>
       <r>   -11.0908     0.0000    48.0000 </r>
       <r>   -10.8842     0.0000    48.0000 </r>
       <r>   -10.6776     0.0000    48.0000 </r>
       <r>   -10.4711     0.0000    48.0000 </r>
       <r>   -10.2645     0.0000    48.0000 </r>
       <r>   -10.0579     0.0000    48.0000 </r>
       <r>    -9.8513     0.0000    48.0000 </r>
       <r>    -9.6447     0.0000    48.0000 </r>
       <r>    -9.4381     0.0000    48.0000 </r>
       <r>    -9.2315     0.0000    48.0000 </r>
       <r>    -9.0249     0.0000    48.0000 </r>
       <r>    -8.8183     0.0000    48.0000 </r>
       <r>    -8.6117     0.0000    48.0000 </r>
       <r>    -8.4052     0.0000    48.0000 </r>
       <r>    -8.1986     0.0000    48.0000 </r>
       <r>    -7.9920     0.0000    48.0000 </r>
       <r>    -7.7854     0.0000    48.0000 </r>
       <r>    -7.5788     0.0000    48.0000 </r>
       <r>    -7.3722     0.0000    48.0000 </r>
       <r>    -7.1656     0.0000    48.0000 </r>
       <r>    -6.9590     0.0000    48.0000 </r>
       <r>    -6.7524     0.0000    48.0000 </r>
       <r>    -6.5458     0.0000    48.0000 </r>
       <r>    -6.3393     0.0000    48.0000 </r>
       <r>    -6.1327     0.0000    48.0000 </r>
       <r>    -5.9261     0.0000    48.0000 </r>
       <r>    -5.7195     0.0000    48.0000 </r>
       <r>    -5.5129     0.0000    48.0000 </r>
       <r>    -5.3063     0.0000    48.0000 </r>
       <r>    -5.0997     0.0000    48.0000 </r>
       <r>    -4.8931     0.0000    48.0000 </r>
       <r>    -4.6865     0.0000    48.0000 </r>
       <r>    -4.4799     0.0000    48.0000 </r>
       <r>    -4.2734     0.0000    48.0000 </r>
       <r>    -4.0668     0.0000    48.0000 </r>
       <r>    -3.8602     0.0000    48.0000 </r>
       <r>    -3.6536     0.0000    48.0000 </r>
       <r>    -3.4470     0.0000    48.0000 </r>
       <r>    -3.2404     0.0000    48.0000 </r>
       <r>    -3.0338     0.0000    48.0000 </r>
       <r>    -2.8272     0.0000    48.0000 </r>
       <r>    -2.6206     0.0000    48.0000 </r>
       <r>    -2.4140     0.0000    48.0000 </r>
       <r>    -2.2075     0.0000    48.0000 </r>
       <r>    -2.0009    -0.0000    48.0000 </r>
       <r>    -1.7943    -0.0000    48.0000 </r>
       <r>    -1.5877    -0.0000    48.0000 </r>
       <r>    -1.3811    -0.0000    48.0000 </r>
       <r>    -1.1745    -0.0000    48.0000 </r>
       <r>    -0.9679    -0.0000    48.0000 </r>
       <r>    -0.7613    -0.0000    48.0000 </r>
       <r>    -0.5547    -0.0034    47.9993 </r>
       <r>    -0.3481    -0.0180    47.9956 </r>
       <r>    -0.1416     0.2240    48.0419 </r>
       <r>     0.0650     1.0021    48.2489 </r>
       <r>     0.2716     1.2912    48.5156 </r>
       <r>     0.4782     1.8015    48.8878 </r>
       <r>     0.6848     2.0345    49.3081 </r>
       <r>     0.8914     1.7687    49.6735 </r>
       <r>     1.0980     2.9515    50.2833 </r>
       <r>     1.3046     3.1371    50.9314 </r>
       <r>     1.5112     3.4607    51.6463 </r>
       <r>     1.7178     3.7746    52.4261 </r>
       <r>     1.9243     4.4785    53.3513 </r>
       <r>     2.1309     5.4320    54.4735 </r>
       <r>     2.3375     6.4361    55.8032 </r>
       <r>     2.5441     9.3079    57.7261 </r>
       <r>     2.7507    14.8461    60.7931 </r>
       <r>     2.9573    20.4441    65.0167 </r>
       <r>     3.1639    24.0595    69.9871 </r>
       <r>     3.3705    28.5723    75.8899 </r>
       <r>     3.5771    30.2511    82.1394 </r>
       <r>     3.7837    31.9863    88.7475 </r>
       <r>     3.9902    32.6803    95.4989 </r>
       <r>     4.1968    31.6726   102.0422 </r>
       <r>     4.4034    27.3952   107.7017 </r>
       <r>     4.6100    25.0750   112.8820 </r>
       <r>     4.8166    30.4756   119.1779 </r>
       <r>     5.0232    37.8355   126.9944 </r>
       <r>     5.2298    41.8995   135.6504 </r>
       <r>     5.4364    42.8698   144.5069 </r>
       <r>     5.6430    41.7134   153.1245 </r>
       <r>     5.8496    41.3114   161.6590 </r>
       <r>     6.0561    42.7479   170.4903 </r>
       <r>     6.2627    44.4665   179.6766 </r>
       <r>     6.4693    43.6108   188.6862 </r>
       <r>     6.6759    39.3240   196.8101 </r>
       <r>     6.8825    32.7656   203.5792 </r>
       <r>     7.0891    26.0031   208.9512 </r>
       <r>     7.2957    21.1379   213.3181 </r>
       <r>     7.5023    18.5723   217.1549 </r>
       <r>     7.7089    17.5581   220.7823 </r>
       <r>     7.9155    18.7796   224.6619 </r>
       <r>     8.1220    23.1700   229.4486 </r>
       <r>     8.3286    24.2179   234.4518 </r>
       <r>     8.5352    18.1213   238.1955 </r>
       <r>     8.7418     8.2070   239.8910 </r>
       <r>     8.9484     0.7138   240.0385 </r>
       <r>     9.1550    -0.1752   240.0023 </r>
       <r>     9.3616    -0.0109   240.0000 </r>
       <r>     9.5682    -0.0001   240.0000 </r>
       <r>     9.7748    -0.0000   240.0000 </r>
       <r>     9.9814    -0.0000   240.0000 </r>
       <r>    10.1879    -0.0000   240.0000 </r>
       <r>    10.3945     0.0000   240.0000 </r>
       <r>    10.6011     0.0000   240.0000 </r>
       <r>    10.8077     0.0000   240.0000 </r>
       <r>    11.0143     0.0000   240.0000 </r>
       <r>    11.2209     0.0000   240.0000 </r>
       <r>    11.4275     0.0000   240.0000 </r>
       <r>    11.6341     0.0000   240.0000 </r>
      </set>
     </set>
    </array>
   </total>
  </dos>
 </calculation>
 <structure name="finalpos" >
  <crystal>
   <varray name="basis" >
    <v>      -3.15790255      -3.13969926      -3.15787535 </v>
    <v>       1.55038691       1.54332867      -7.83969164 </v>
    <v>       7.95055423      -7.91642090      -1.56796334 </v>
   </varray>
   <i name="volume">    469.19948152 </i>
   <varray name="rec_basis" >
    <v>      -0.13743021      -0.12766200      -0.05231002 </v>
    <v>       0.04278806       0.06406302      -0.10648272 </v>
    <v>       0.06284729      -0.06319894      -0.00001264 </v>
   </varray>
  </crystal>
  <varray name="positions" >
   <v>       0.96539690       0.93923356       0.39584042 </v>
   <v>       0.62682432       0.27108708       0.40245173 </v>
   <v>       0.50502347       0.00202487      -0.00645730 </v>
   <v>      -0.00168473       0.00740591      -0.00025280 </v>
   <v>       0.09533495       0.20410325       0.79512599 </v>
   <v>       0.03662657       0.07332960       0.59250357 </v>
   <v>       0.91035698       0.79549426       0.20344340 </v>
   <v>       0.73189670       0.47111856       0.20377379 </v>
   <v>       0.66122845       0.34542904      -0.00371574 </v>
   <v>       0.36358822       0.72138894       0.60353872 </v>
   <v>       0.12782366       0.29048486       0.39845174 </v>
   <v>       0.83863147       0.66303550       0.00316834 </v>
   <v>       0.92121335       0.87053529       0.79382857 </v>
   <v>       0.56610771       0.13627546       0.19865852 </v>
   <v>       0.40667451       0.79283935       0.19562200 </v>
   <v>       0.43869263       0.85370333       0.79517737 </v>
   <v>       0.29335420       0.60127812       0.40496979 </v>
   <v>       0.85349969       0.72154958       0.59416018 </v>
   <v>       0.47834045       0.91493308       0.40685003 </v>
   <v>       0.17411205       0.33854382       0.00242378 </v>
   <v>       0.27626996       0.52892085       0.79627145 </v>
   <v>       0.21039035       0.38276895       0.60197180 </v>
   <v>       0.06077845       0.15322438       0.20803665 </v>
   <v>       0.76554096       0.52017310       0.80433217 </v>
   <v>       0.67529926       0.41023531       0.61141045 </v>
   <v>       0.59761480       0.20511224       0.79235562 </v>
   <v>       0.54764848       0.06237458       0.60349917 </v>
   <v>       0.34444297       0.64790463       0.00165312 </v>
   <v>       0.22897321       0.47549251       0.20090749 </v>
  </varray>
 </structure>
</modeling>
