Nb - Mo - Ta - Ti - V SQS               
           1
    -3.160000   -3.160000   -3.160000
     1.580000    1.580000   -7.900000
     7.900000   -7.900000   -1.580000
   Nb   Mo   Ta   Ti   V 
   6   5   6   6   6
Direct configuration=     1
   0.96666667  0.93333333  0.40000000
   0.63333333  0.26666667  0.40000000
   0.50000000  0.00000000  0.00000000
   0.00000000  0.00000000  0.00000000
   0.10000000  0.20000000  0.80000000
   0.03333333  0.06666667  0.60000000
   0.90000000  0.80000000  0.20000000
   0.73333333  0.46666667  0.20000000
   0.66666667  0.33333333  0.00000000
   0.36666667  0.73333333  0.60000000
   0.13333333  0.26666667  0.40000000
   0.83333333  0.66666667  0.00000000
   0.93333333  0.86666667  0.80000000
   0.56666667  0.13333333  0.20000000
   0.40000000  0.80000000  0.20000000
   0.43333333  0.86666667  0.80000000
   0.30000000  0.60000000  0.40000000
   0.86666667  0.73333333  0.60000000
   0.46666667  0.93333333  0.40000000
   0.16666667  0.33333333  0.00000000
   0.26666667  0.53333333  0.80000000
   0.20000000  0.40000000  0.60000000
   0.06666667  0.13333333  0.20000000
   0.76666667  0.53333333  0.80000000
   0.70000000  0.40000000  0.60000000
   0.60000000  0.20000000  0.80000000
   0.53333333  0.06666667  0.60000000
   0.33333333  0.66666667  0.00000000
   0.23333333  0.46666667  0.20000000
Nb - Mo - Ta - Ti - V SQS               
           1
    -3.140942   -3.126704   -3.131241
     1.564734    1.570822   -7.829835
     7.863737   -7.838858   -1.554903
   Nb   Mo   Ta   Ti   V 
   6   5   6   6   6
Direct configuration=     2
   0.96570162  0.93424704  0.39875490
   0.63108328  0.26742130  0.40100405
   0.49953228  0.00188430 -0.00136982
  -0.00157081  0.00093633  0.00052072
   0.09687843  0.20536971  0.79786680
   0.03364973  0.06904212  0.59801748
   0.90501569  0.79645621  0.20175329
   0.73280091  0.46695077  0.19959852
   0.66370234  0.33843138 -0.00156615
   0.36786621  0.73025528  0.60097774
   0.13408416  0.27178973  0.39943119
   0.83464749  0.66254388  0.00201209
   0.92884350  0.86820569  0.79952128
   0.56536251  0.13501373  0.19892263
   0.40272292  0.79386064  0.19810461
   0.43972065  0.86093105  0.79741787
   0.29956903  0.59912635  0.40081687
   0.86404411  0.73190961  0.59971368
   0.46529942  0.93047761  0.40306401
   0.16852878  0.33507828  0.00059789
   0.27053480  0.53356152  0.79844205
   0.20374573  0.39572950  0.59993337
   0.06517533  0.13772723  0.20271931
   0.76731323  0.52975629  0.80027439
   0.69447938  0.40244309  0.60206353
   0.59874127  0.20227921  0.79942060
   0.53594011  0.06782905  0.60121946
   0.33548121  0.66206731  0.00061689
   0.23110668  0.46867579  0.20015078
Nb - Mo - Ta - Ti - V SQS               
           1
    -3.133946   -3.114481   -3.120684
     1.559130    1.567453   -7.804080
     7.850425   -7.816415   -1.545691
   Nb   Mo   Ta   Ti   V 
   6   5   6   6   6
Direct configuration=     3
   0.96534265  0.93458517  0.39829482
   0.63025205  0.26770073  0.40137425
   0.49935738  0.00258182 -0.00187565
  -0.00215131  0.00128301  0.00071265
   0.09572059  0.20735754  0.79707863
   0.03376423  0.06992146  0.59728569
   0.90687439  0.79514449  0.20240204
   0.73260327  0.46705589  0.19945009
   0.66260352  0.34031870 -0.00214487
   0.36831121  0.72911576  0.60133882
   0.13436208  0.27368659  0.39922208
   0.83513632  0.66101764  0.00275510
   0.92718106  0.86877528  0.79934318
   0.56487840  0.13563574  0.19852450
   0.40372693  0.79158736  0.19740457
   0.44208009  0.85880734  0.79646548
   0.29941060  0.59880294  0.40111830
   0.86307266  0.73138230  0.59960684
   0.46479750  0.92942052  0.40419483
   0.16921927  0.33572452  0.00081959
   0.27196430  0.53364601  0.79786795
   0.20513144  0.39414844  0.59990940
   0.06462817  0.13935439  0.20372381
   0.76755238  0.52843190  0.80037544
   0.69243941  0.40334766  0.60282419
   0.59827484  0.20312300  0.79920651
   0.53690709  0.06825969  0.60167091
   0.33627644  0.66036450  0.00084480
   0.23028303  0.46941961  0.20020601
Nb - Mo - Ta - Ti - V SQS               
           1
    -3.149223   -3.120794   -3.130606
     1.563584    1.574005   -7.829101
     7.898072   -7.847101   -1.545209
   Nb   Mo   Ta   Ti   V 
   6   5   6   6   6
Direct configuration=     4
   0.96437327  0.93522803  0.39751774
   0.62911983  0.26818075  0.40191373
   0.49929589  0.00331246 -0.00298157
  -0.00291347  0.00230120  0.00094136
   0.09392758  0.21050666  0.79568892
   0.03404681  0.07155984  0.59603912
   0.90985341  0.79258683  0.20368567
   0.73253414  0.46695022  0.19967723
   0.66049032  0.34358518 -0.00337464
   0.36930293  0.72677409  0.60185814
   0.13419400  0.27773171  0.39881031
   0.83621373  0.65904474  0.00382209
   0.92505002  0.86977577  0.79889276
   0.56381823  0.13659617  0.19806160
   0.40555388  0.78825120  0.19633217
   0.44452357  0.85567432  0.79498268
   0.29899956  0.59825978  0.40192544
   0.86108499  0.73010847  0.59913908
   0.46456656  0.92694395  0.40616231
   0.17074099  0.33691922  0.00122718
   0.27476857  0.53359738  0.79672410
   0.20758610  0.39116657  0.59984884
   0.06370471  0.14239332  0.20551475
   0.76812229  0.52574746  0.80057514
   0.68833260  0.40527806  0.60447701
   0.59731013  0.20501422  0.79852924
   0.53886190  0.06901185  0.60259528
   0.33778540  0.65674855  0.00120101
   0.22875206  0.47075202  0.20021333
Nb - Mo - Ta - Ti - V SQS               
           1
    -3.162279   -3.126188   -3.139086
     1.567390    1.579604   -7.850484
     7.938792   -7.873325   -1.544797
   Nb   Mo   Ta   Ti   V 
   6   5   6   6   6
Direct configuration=     5
   0.96354597  0.93577565  0.39685653
   0.62815681  0.26858963  0.40237200
   0.49924108  0.00393486 -0.00392196
  -0.00356196  0.00316851  0.00113560
   0.09239768  0.21318918  0.79450664
   0.03428482  0.07295547  0.59497939
   0.91239323  0.79040812  0.20477838
   0.73247576  0.46686020  0.19987033
   0.65868810  0.34636766 -0.00442106
   0.37014849  0.72477939  0.60229997
   0.13405033  0.28117746  0.39846052
   0.83713356  0.65736415  0.00472973
   0.92323414  0.87062803  0.79850882
   0.56291435  0.13741430  0.19766755
   0.40710708  0.78540939  0.19542073
   0.44660094  0.85300555  0.79372258
   0.29865126  0.59779709  0.40261155
   0.85939094  0.72902340  0.59874022
   0.46437407  0.92483431  0.40783501
   0.17203806  0.33793688  0.00157465
   0.27715432  0.53355596  0.79575274
   0.20967623  0.38862653  0.59979818
   0.06292260  0.14498193  0.20703761
   0.76860784  0.52346079  0.80074494
   0.68483887  0.40692241  0.60588075
   0.59648716  0.20662523  0.79795305
   0.54052895  0.06965254  0.60338236
   0.33907098  0.65366838  0.00150423
   0.22744833  0.47188699  0.20021895
Nb - Mo - Ta - Ti - V SQS               
           1
    -3.162838   -3.129105   -3.142633
     1.567881    1.576195   -7.854708
     7.941438   -7.878418   -1.550040
   Nb   Mo   Ta   Ti   V 
   6   5   6   6   6
Direct configuration=     6
   0.96327700  0.93583276  0.39682966
   0.62860098  0.26852972  0.40210956
   0.50000266  0.00300249 -0.00422442
  -0.00354260  0.00373740  0.00110976
   0.09286344  0.21226575  0.79462143
   0.03454824  0.07309378  0.59495956
   0.91191579  0.79050991  0.20469827
   0.73262626  0.46644234  0.20042500
   0.65878598  0.34591279 -0.00452667
   0.36974765  0.72445375  0.60217785
   0.13337503  0.28192417  0.39840159
   0.83702194  0.65882155  0.00439815
   0.92407384  0.87077560  0.79834547
   0.56304453  0.13701997  0.19787060
   0.40710348  0.78631913  0.19558630
   0.44458700  0.85382465  0.79399652
   0.29837333  0.59820606  0.40297661
   0.85897699  0.72866963  0.59846248
   0.46510858  0.92415159  0.40780715
   0.17249611  0.33789029  0.00155755
   0.27732552  0.53332536  0.79558683
   0.20987136  0.38821851  0.59974674
   0.06267147  0.14536989  0.20717007
   0.76870822  0.52324723  0.80084917
   0.68393209  0.40734878  0.60648220
   0.59650460  0.20701729  0.79739994
   0.54119304  0.06936421  0.60363681
   0.33920908  0.65289271  0.00135781
   0.22759839  0.47183272  0.20018800
Nb - Mo - Ta - Ti - V SQS               
           1
    -3.164356   -3.137032   -3.152270
     1.569214    1.566934   -7.866184
     7.948627   -7.892257   -1.564284
   Nb   Mo   Ta   Ti   V 
   6   5   6   6   6
Direct configuration=     7
   0.96254657  0.93598803  0.39675677
   0.62980765  0.26836700  0.40139667
   0.50207274  0.00046955 -0.00504556
  -0.00349092  0.00528285  0.00103919
   0.09412956  0.20975687  0.79493362
   0.03526335  0.07346939  0.59490549
   0.91061922  0.79078671  0.20448082
   0.73303478  0.46530662  0.20193168
   0.65905266  0.34467715 -0.00481322
   0.36865985  0.72356941  0.60184654
   0.13154010  0.28395305  0.39824131
   0.83671698  0.66278107  0.00349665
   0.92635410  0.87117626  0.79790140
   0.56339835  0.13594846  0.19842229
   0.40709199  0.78879034  0.19603537
   0.43911633  0.85605048  0.79474080
   0.29761738  0.59931686  0.40396793
   0.85785389  0.72770901  0.59770857
   0.46710431  0.92229662  0.40773163
   0.17374005  0.33776352  0.00151097
   0.27779105  0.53269898  0.79513632
   0.21040198  0.38711004  0.59960720
   0.06198869  0.14642381  0.20752966
   0.76898098  0.52266694  0.80113237
   0.68146809  0.40850690  0.60811578
   0.59655218  0.20808287  0.79589744
   0.54299649  0.06858037  0.60432781
   0.33958555  0.65078559  0.00096059
   0.22800605  0.47168523  0.20010391
Nb - Mo - Ta - Ti - V SQS               
           1
    -3.155183   -3.131153   -3.146363
     1.564961    1.556461   -7.844239
     7.931007   -7.877548   -1.566715
   Nb   Mo   Ta   Ti   V 
   6   5   6   6   6
Direct configuration=     8
   0.96229456  0.93622999  0.39672453
   0.62967843  0.26847663  0.40145398
   0.50272661  0.00006932 -0.00520524
  -0.00337088  0.00592833  0.00101589
   0.09480911  0.20858524  0.79512135
   0.03567166  0.07368751  0.59466723
   0.91003833  0.79121087  0.20423048
   0.73284281  0.46555925  0.20223684
   0.65970381  0.34439445 -0.00484545
   0.36775702  0.72341428  0.60210915
   0.13089127  0.28507857  0.39802175
   0.83686928  0.66347028  0.00329859
   0.92556636  0.87165744  0.79733388
   0.56382016  0.13505111  0.19846966
   0.40700653  0.78935879  0.19630275
   0.43827215  0.85663006  0.79493836
   0.29733836  0.59974366  0.40415864
   0.85722916  0.72700332  0.59727282
   0.46834783  0.92114783  0.40774078
   0.17405460  0.33788269  0.00141548
   0.27806897  0.53227524  0.79483490
   0.21059098  0.38642947  0.59970235
   0.06153965  0.14717102  0.20776037
   0.76872139  0.52243765  0.80151581
   0.68005922  0.40925415  0.60908642
   0.59684870  0.20831714  0.79497226
   0.54407197  0.06805008  0.60461848
   0.34026777  0.64973271  0.00080027
   0.22828419  0.47175292  0.20024769
Nb - Mo - Ta - Ti - V SQS               
           1
    -3.154492   -3.130711   -3.145918
     1.564641    1.555672   -7.842586
     7.929679   -7.876441   -1.566898
   Nb   Mo   Ta   Ti   V 
   6   5   6   6   6
Direct configuration=     9
   0.96227552  0.93624827  0.39672209
   0.62966867  0.26848491  0.40145830
   0.50277600  0.00003907 -0.00521729
  -0.00336186  0.00597711  0.00101411
   0.09486047  0.20849670  0.79513554
   0.03570248  0.07370399  0.59464923
   0.90999447  0.79124293  0.20421158
   0.73282829  0.46557833  0.20225987
   0.65975299  0.34437309 -0.00484788
   0.36768886  0.72340256  0.60212899
   0.13084223  0.28516363  0.39800516
   0.83688075  0.66352237  0.00328361
   0.92550689  0.87169382  0.79729105
   0.56385206  0.13498330  0.19847325
   0.40700003  0.78940173  0.19632292
   0.43820838  0.85667385  0.79495326
   0.29731726  0.59977591  0.40417302
   0.85718206  0.72695002  0.59723997
   0.46844178  0.92106102  0.40774148
   0.17407835  0.33789169  0.00140827
   0.27809000  0.53224323  0.79481216
   0.21060528  0.38637804  0.59970954
   0.06150570  0.14722748  0.20777777
   0.76870178  0.52242032  0.80154477
   0.67995276  0.40931059  0.60915967
   0.59687112  0.20833487  0.79490242
   0.54415317  0.06800999  0.60464042
   0.34031935  0.64965316  0.00078819
   0.22830517  0.47175803  0.20025853
Nb - Mo - Ta - Ti - V SQS               
           1
    -3.154539   -3.133367   -3.147829
     1.564903    1.550733   -7.841361
     7.936693   -7.885603   -1.572297
   Nb   Mo   Ta   Ti   V 
   6   5   6   6   6
Direct configuration=    10
   0.96214065  0.93657607  0.39671247
   0.62912078  0.26871267  0.40181684
   0.50292316  0.00043857 -0.00519843
  -0.00313075  0.00641540  0.00098922
   0.09546425  0.20768007  0.79527746
   0.03600071  0.07396711  0.59428125
   0.90954019  0.79171931  0.20402770
   0.73245988  0.46637079  0.20228947
   0.66054060  0.34439621 -0.00478006
   0.36680770  0.72346673  0.60260462
   0.13030463  0.28626488  0.39776725
   0.83727415  0.66314291  0.00318382
   0.92383705  0.87212396  0.79656725
   0.56432787  0.13403355  0.19840989
   0.40684252  0.78952589  0.19657279
   0.43890303  0.85665607  0.79504433
   0.29717344  0.60000202  0.40417522
   0.85659986  0.72612407  0.59676510
   0.46977462  0.91985899  0.40780699
   0.17406254  0.33807914  0.00131627
   0.27811182  0.53183207  0.79453647
   0.21055308  0.38584400  0.59990654
   0.06111473  0.14797223  0.20796246
   0.76827211  0.52230475  0.80200977
   0.67877221  0.41003382  0.60995004
   0.59729006  0.20822363  0.79405118
   0.54510612  0.06743405  0.60477694
   0.34125907  0.64887628  0.00071691
   0.22855392  0.47192473  0.20046026
Nb - Mo - Ta - Ti - V SQS               
           1
    -3.154625   -3.138236   -3.151332
     1.565383    1.541679   -7.839115
     7.949549   -7.902398   -1.582193
   Nb   Mo   Ta   Ti   V 
   6   5   6   6   6
Direct configuration=    11
   0.96189323  0.93717719  0.39669470
   0.62811644  0.26913018  0.40247338
   0.50319237  0.00117114 -0.00516419
  -0.00270772  0.00721912  0.00094332
   0.09657114  0.20618247  0.79553764
   0.03654720  0.07444980  0.59360718
   0.90870760  0.79259299  0.20369085
   0.73178409  0.46782399  0.20234330
   0.66198353  0.34443854 -0.00465613
   0.36519281  0.72358422  0.60347578
   0.12931881  0.28828448  0.39733110
   0.83799539  0.66244710  0.00300119
   0.92077789  0.87291321  0.79524214
   0.56520062  0.13229193  0.19829431
   0.40655359  0.78975346  0.19703031
   0.44017567  0.85662338  0.79521089
   0.29690970  0.60041666  0.40417914
   0.85553441  0.72460975  0.59589626
   0.47221769  0.91765465  0.40792727
   0.17403347  0.33842294  0.00114772
   0.27815247  0.53107823  0.79403188
   0.21045778  0.38486459  0.60026760
   0.06039753  0.14933786  0.20830032
   0.76748459  0.52209261  0.80286144
   0.67660784  0.41135972  0.61139718
   0.59805849  0.20802007  0.79249241
   0.54685250  0.06637777  0.60502697
   0.34298160  0.64745165  0.00058656
   0.22900931  0.47223029  0.20082948
Nb - Mo - Ta - Ti - V SQS               
           1
    -3.156814   -3.140705   -3.154310
     1.564917    1.540241   -7.842328
     7.958277   -7.911638   -1.583893
   Nb   Mo   Ta   Ti   V 
   6   5   6   6   6
Direct configuration=    12
   0.96226857  0.93741622  0.39656018
   0.62770550  0.26928149  0.40240912
   0.50365167  0.00124874 -0.00532270
  -0.00262087  0.00702357  0.00083650
   0.09662236  0.20608029  0.79540585
   0.03654092  0.07477720  0.59327596
   0.90881486  0.79280811  0.20373227
   0.73157118  0.46819850  0.20244013
   0.66174115  0.34468844 -0.00452441
   0.36480078  0.72352718  0.60365354
   0.12903735  0.28882519  0.39729181
   0.83812476  0.66241989  0.00302642
   0.92165020  0.87274205  0.79481461
   0.56551920  0.13255798  0.19858103
   0.40643333  0.78989867  0.19674223
   0.43926629  0.85613735  0.79537218
   0.29657583  0.60044543  0.40446650
   0.85502002  0.72413810  0.59563617
   0.47297286  0.91690414  0.40806892
   0.17412334  0.33852160  0.00122874
   0.27764337  0.53100557  0.79415325
   0.21041395  0.38466882  0.60046927
   0.06020001  0.14988724  0.20833857
   0.76727767  0.52204308  0.80314149
   0.67605393  0.41166362  0.61158975
   0.59829002  0.20763358  0.79222728
   0.54738279  0.06582366  0.60491833
   0.34384755  0.64716138  0.00076372
   0.22907142  0.47247290  0.20070328
Nb - Mo - Ta - Ti - V SQS               
           1
    -3.157579   -3.141568   -3.155350
     1.564755    1.539739   -7.843451
     7.961327   -7.914867   -1.584487
   Nb   Mo   Ta   Ti   V 
   6   5   6   6   6
Direct configuration=    13
   0.96239961  0.93749972  0.39651321
   0.62756197  0.26933437  0.40238669
   0.50381205  0.00127584 -0.00537804
  -0.00259052  0.00695524  0.00079921
   0.09664026  0.20604459  0.79535985
   0.03653869  0.07489159  0.59316033
   0.90885229  0.79288326  0.20374673
   0.73149677  0.46832936  0.20247393
   0.66165648  0.34477576 -0.00447844
   0.36466389  0.72350726  0.60371559
   0.12893899  0.28901412  0.39727808
   0.83816994  0.66241038  0.00303522
   0.92195485  0.87268222  0.79466537
   0.56563040  0.13265093  0.19868111
   0.40639133  0.78994941  0.19664167
   0.43894879  0.85596755  0.79542850
   0.29645922  0.60045549  0.40456681
   0.85484047  0.72397332  0.59554539
   0.47323667  0.91664190  0.40811838
   0.17415471  0.33855607  0.00125702
   0.27746559  0.53098020  0.79419563
   0.21039867  0.38460043  0.60053967
   0.06013095  0.15007920  0.20835192
   0.76720542  0.52202578  0.80323925
   0.67586046  0.41176982  0.61165697
   0.59837094  0.20749853  0.79213474
   0.54756805  0.06563004  0.60488041
   0.34414998  0.64705995  0.00082557
   0.22909307  0.47255766  0.20065922
Nb - Mo - Ta - Ti - V SQS               
           1
    -3.154266   -3.138158   -3.153273
     1.561023    1.536581   -7.834717
     7.955623   -7.910069   -1.582318
   Nb   Mo   Ta   Ti   V 
   6   5   6   6   6
Direct configuration=    14
   0.96298904  0.93767232  0.39631671
   0.62721739  0.26954033  0.40224291
   0.50433986  0.00123586 -0.00560283
  -0.00250111  0.00675026  0.00067026
   0.09648433  0.20604432  0.79521658
   0.03650836  0.07524860  0.59282451
   0.90910970  0.79309045  0.20382300
   0.73134964  0.46856217  0.20260630
   0.66130983  0.34496862 -0.00434299
   0.36439115  0.72338133  0.60377496
   0.12871072  0.28936326  0.39731026
   0.83820864  0.66262453  0.00310256
   0.92246593  0.87242628  0.79437652
   0.56586003  0.13314021  0.19899059
   0.40627423  0.79017310  0.19632773
   0.43844068  0.85542243  0.79554914
   0.29603738  0.60049609  0.40486981
   0.85432882  0.72364885  0.59538097
   0.47391064  0.91608873  0.40818589
   0.17426349  0.33854293  0.00140114
   0.27692796  0.53088002  0.79451042
   0.21043390  0.38444952  0.60073552
   0.06008570  0.15057640  0.20832090
   0.76695632  0.52196102  0.80346361
   0.67549073  0.41187633  0.61166317
   0.59857370  0.20700887  0.79203811
   0.54788885  0.06502692  0.60471180
   0.34483360  0.64694661  0.00101415
   0.22911052  0.47285368  0.20051829
Nb - Mo - Ta - Ti - V SQS               
           1
    -3.153729   -3.137605   -3.152937
     1.560418    1.536069   -7.833301
     7.954698   -7.909290   -1.581966
   Nb   Mo   Ta   Ti   V 
   6   5   6   6   6
Direct configuration=    15
   0.96308472  0.93770032  0.39628482
   0.62716144  0.26957378  0.40221957
   0.50442555  0.00122935 -0.00563931
  -0.00248658  0.00671697  0.00064933
   0.09645902  0.20604427  0.79519333
   0.03650341  0.07530656  0.59277001
   0.90915147  0.79312409  0.20383538
   0.73132573  0.46859998  0.20262779
   0.66125354  0.34499995 -0.00432101
   0.36434688  0.72336089  0.60378460
   0.12867363  0.28941996  0.39731549
   0.83821491  0.66265931  0.00311349
   0.92254892  0.87238470  0.79432964
   0.56589727  0.13321967  0.19904082
   0.40625520  0.79020941  0.19627679
   0.43835823  0.85533392  0.79556872
   0.29596889  0.60050270  0.40491899
   0.85424579  0.72359617  0.59535429
   0.47402009  0.91599889  0.40819685
   0.17428115  0.33854080  0.00142453
   0.27684068  0.53086377  0.79456151
   0.21043963  0.38442502  0.60076730
   0.06007832  0.15065714  0.20831587
   0.76691589  0.52195051  0.80350002
   0.67543070  0.41189363  0.61166418
   0.59860665  0.20692935  0.79202242
   0.54794098  0.06492897  0.60468443
   0.34494458  0.64692820  0.00104475
   0.22911333  0.47290175  0.20049542
Nb - Mo - Ta - Ti - V SQS               
           1
    -3.153588   -3.137320   -3.153974
     1.558851    1.535697   -7.834150
     7.955716   -7.911328   -1.581119
   Nb   Mo   Ta   Ti   V 
   6   5   6   6   6
Direct configuration=    16
   0.96354398  0.93780825  0.39615736
   0.62708169  0.26976715  0.40218106
   0.50458860  0.00128606 -0.00579561
  -0.00227781  0.00673908  0.00053714
   0.09627048  0.20603701  0.79515333
   0.03648226  0.07544722  0.59257951
   0.90939982  0.79324727  0.20389758
   0.73133069  0.46875714  0.20278777
   0.66113659  0.34498156 -0.00422911
   0.36411589  0.72326503  0.60376717
   0.12839387  0.28968983  0.39733710
   0.83847024  0.66283454  0.00315012
   0.92214335  0.87218732  0.79419459
   0.56580085  0.13368388  0.19916636
   0.40619127  0.79053823  0.19612238
   0.43866864  0.85494365  0.79558776
   0.29560815  0.60060698  0.40502839
   0.85398102  0.72339408  0.59524041
   0.47467223  0.91566530  0.40811058
   0.17429456  0.33842063  0.00157993
   0.27647661  0.53060480  0.79495617
   0.21040731  0.38433946  0.60095215
   0.06026033  0.15101933  0.20817210
   0.76666455  0.52189083  0.80367057
   0.67534746  0.41178701  0.61151366
   0.59870189  0.20646000  0.79207592
   0.54800021  0.06441686  0.60450456
   0.34512652  0.64701121  0.00114862
   0.22911875  0.47317030  0.20045244
Nb - Mo - Ta - Ti - V SQS               
           1
    -3.153202   -3.136542   -3.156811
     1.554569    1.534680   -7.836471
     7.958499   -7.916899   -1.578804
   Nb   Mo   Ta   Ti   V 
   6   5   6   6   6
Direct configuration=    17
   0.96479937  0.93810305  0.39580903
   0.62686351  0.27029578  0.40207583
   0.50503432  0.00144097 -0.00622275
  -0.00170708  0.00679940  0.00023054
   0.09575511  0.20601722  0.79504401
   0.03642434  0.07583167  0.59205888
   0.91007862  0.79358394  0.20406759
   0.73134409  0.46918682  0.20322507
   0.66081688  0.34493137 -0.00397795
   0.36348453  0.72300306  0.60371952
   0.12762885  0.29042766  0.39739621
   0.83916810  0.66331347  0.00325027
   0.92103482  0.87164786  0.79382541
   0.56553685  0.13495296  0.19950958
   0.40601626  0.79143704  0.19570041
   0.43951753  0.85387667  0.79563972
   0.29462190  0.60089224  0.40532740
   0.85325744  0.72284167  0.59492913
   0.47645527  0.91475307  0.40787476
   0.17433129  0.33809220  0.00200463
   0.27548147  0.52989720  0.79603477
   0.21031901  0.38410568  0.60145735
   0.06075760  0.15200931  0.20777923
   0.76597749  0.52172785  0.80413668
   0.67512003  0.41149551  0.61110225
   0.59896261  0.20517696  0.79222204
   0.54816262  0.06301683  0.60401284
   0.34562379  0.64723813  0.00143252
   0.22913337  0.47390443  0.20033504
Nb - Mo - Ta - Ti - V SQS               
           1
    -3.153354   -3.136849   -3.155693
     1.556257    1.535081   -7.835556
     7.957402   -7.914703   -1.579717
   Nb   Mo   Ta   Ti   V 
   6   5   6   6   6
Direct configuration=    18
   0.96430451  0.93798708  0.39594624
   0.62694969  0.27008737  0.40211725
   0.50485861  0.00138004 -0.00605446
  -0.00193209  0.00677576  0.00035134
   0.09595828  0.20602497  0.79508710
   0.03644726  0.07568020  0.59226399
   0.90981114  0.79345128  0.20400056
   0.73133898  0.46901734  0.20305273
   0.66094293  0.34495106 -0.00407691
   0.36373335  0.72310626  0.60373832
   0.12793070  0.29013665  0.39737286
   0.83889314  0.66312474  0.00321076
   0.92147164  0.87186045  0.79397093
   0.56564138  0.13445253  0.19937424
   0.40608552  0.79108275  0.19586661
   0.43918251  0.85429743  0.79561932
   0.29501084  0.60077958  0.40520957
   0.85354250  0.72305940  0.59505183
   0.47575200  0.91511301  0.40796774
   0.17431674  0.33822160  0.00183731
   0.27587365  0.53017582  0.79560984
   0.21035378  0.38419774  0.60125830
   0.06056185  0.15161917  0.20793394
   0.76624834  0.52179191  0.80395304
   0.67520956  0.41161048  0.61126438
   0.59885941  0.20568279  0.79216457
   0.54809809  0.06356890  0.60420670
   0.34542785  0.64714869  0.00132063
   0.22912784  0.47361503  0.20038124
Nb - Mo - Ta - Ti - V SQS               
           1
    -3.154133   -3.139074   -3.157044
     1.556343    1.536338   -7.838781
     7.957146   -7.918501   -1.579979
   Nb   Mo   Ta   Ti   V 
   6   5   6   6   6
Direct configuration=    19
   0.96445915  0.93820808  0.39592141
   0.62689553  0.27019575  0.40227609
   0.50478776  0.00163064 -0.00596390
  -0.00183566  0.00703454  0.00022584
   0.09584778  0.20582213  0.79514937
   0.03646186  0.07532419  0.59233911
   0.90985014  0.79379230  0.20393703
   0.73142715  0.46940604  0.20314109
   0.66127981  0.34486410 -0.00401862
   0.36354260  0.72289558  0.60379352
   0.12775602  0.29039882  0.39747080
   0.83898445  0.66290604  0.00327751
   0.92132307  0.87180685  0.79374636
   0.56571854  0.13465435  0.19909617
   0.40629881  0.79143100  0.19584463
   0.43920560  0.85414005  0.79544389
   0.29472733  0.60096406  0.40512331
   0.85339360  0.72288646  0.59495271
   0.47648723  0.91494969  0.40775209
   0.17414798  0.33814690  0.00189369
   0.27588803  0.52975354  0.79592664
   0.21029146  0.38399832  0.60147902
   0.06060659  0.15187078  0.20781027
   0.76604847  0.52159432  0.80408828
   0.67523956  0.41142240  0.61115297
   0.59869011  0.20542209  0.79224303
   0.54806537  0.06323769  0.60402703
   0.34527000  0.64735487  0.00132258
   0.22914165  0.47388844  0.20054807
Nb - Mo - Ta - Ti - V SQS               
           1
    -3.154578   -3.140346   -3.157816
     1.556393    1.537057   -7.840623
     7.956999   -7.920671   -1.580129
   Nb   Mo   Ta   Ti   V 
   6   5   6   6   6
Direct configuration=    20
   0.96454749  0.93833432  0.39590723
   0.62686454  0.27025768  0.40236685
   0.50474727  0.00177379 -0.00591214
  -0.00178053  0.00718234  0.00015414
   0.09578465  0.20570626  0.79518495
   0.03647017  0.07512083  0.59238201
   0.90987244  0.79398709  0.20390075
   0.73147749  0.46962809  0.20319159
   0.66147223  0.34481444 -0.00398534
   0.36343363  0.72277525  0.60382506
   0.12765622  0.29054859  0.39752678
   0.83903659  0.66278112  0.00331563
   0.92123828  0.87177620  0.79361805
   0.56576269  0.13476959  0.19893730
   0.40642064  0.79162993  0.19583208
   0.43921883  0.85405012  0.79534366
   0.29456542  0.60106942  0.40507405
   0.85330858  0.72278765  0.59489607
   0.47690727  0.91485638  0.40762884
   0.17405156  0.33810423  0.00192590
   0.27589615  0.52951237  0.79610763
   0.21025579  0.38388444  0.60160512
   0.06063218  0.15201449  0.20773961
   0.76593426  0.52148146  0.80416555
   0.67525673  0.41131495  0.61108931
   0.59859339  0.20527317  0.79228785
   0.54804674  0.06304848  0.60392436
   0.34517984  0.64747265  0.00132371
   0.22914948  0.47404464  0.20064340
Nb - Mo - Ta - Ti - V SQS               
           1
    -3.153515   -3.140114   -3.157007
     1.555430    1.537251   -7.838483
     7.952342   -7.918756   -1.579074
   Nb   Mo   Ta   Ti   V 
   6   5   6   6   6
Direct configuration=    21
   0.96466320  0.93850778  0.39588894
   0.62681135  0.27033964  0.40244594
   0.50474698  0.00188832 -0.00588790
  -0.00175344  0.00734715  0.00005253
   0.09573627  0.20548405  0.79522629
   0.03649227  0.07481795  0.59243426
   0.90990671  0.79423967  0.20383274
   0.73154942  0.46988726  0.20324563
   0.66163935  0.34480504 -0.00394992
   0.36334190  0.72258152  0.60384523
   0.12762979  0.29065740  0.39761407
   0.83898729  0.66272543  0.00333979
   0.92120467  0.87173488  0.79354188
   0.56588441  0.13488487  0.19876885
   0.40659519  0.79185183  0.19583098
   0.43908363  0.85403080  0.79525824
   0.29438223  0.60118966  0.40499456
   0.85325079  0.72265204  0.59481601
   0.47730812  0.91479934  0.40746540
   0.17397863  0.33808529  0.00197446
   0.27599605  0.52926404  0.79625889
   0.21024979  0.38372753  0.60173329
   0.06059844  0.15215991  0.20770946
   0.76581979  0.52129758  0.80424399
   0.67525247  0.41116926  0.61106302
   0.59842265  0.20518535  0.79233650
   0.54802557  0.06287856  0.60382576
   0.34505007  0.64757149  0.00133651
   0.22914642  0.47423636  0.20075459
Nb - Mo - Ta - Ti - V SQS               
           1
    -3.152358   -3.139862   -3.156127
     1.554382    1.537463   -7.836154
     7.947273   -7.916672   -1.577925
   Nb   Mo   Ta   Ti   V 
   6   5   6   6   6
Direct configuration=    22
   0.96478918  0.93869662  0.39586902
   0.62675341  0.27042888  0.40253207
   0.50474666  0.00201301 -0.00586150
  -0.00172391  0.00752655 -0.00005810
   0.09568359  0.20524214  0.79527129
   0.03651631  0.07448821  0.59249113
   0.90994404  0.79451465  0.20375871
   0.73162772  0.47016943  0.20330448
   0.66182127  0.34479481 -0.00391135
   0.36324202  0.72237060  0.60386718
   0.12760098  0.29077588  0.39770913
   0.83893362  0.66266481  0.00336609
   0.92116810  0.87168988  0.79345894
   0.56601699  0.13501034  0.19858542
   0.40678521  0.79209342  0.19582980
   0.43893647  0.85400975  0.79516524
   0.29418283  0.60132054  0.40490802
   0.85318792  0.72250437  0.59472882
   0.47774458  0.91473722  0.40728741
   0.17389922  0.33806468  0.00202733
   0.27610475  0.52899372  0.79642358
   0.21024321  0.38355674  0.60187285
   0.06056171  0.15231822  0.20767664
   0.76569513  0.52109741  0.80432939
   0.67524784  0.41101064  0.61103439
   0.59823675  0.20508974  0.79238949
   0.54800256  0.06269355  0.60371839
   0.34490879  0.64767909  0.00135047
   0.22914304  0.47444510  0.20087568
Nb - Mo - Ta - Ti - V SQS               
           1
    -3.152631   -3.139748   -3.156190
     1.553879    1.538232   -7.836495
     7.946303   -7.915931   -1.576753
   Nb   Mo   Ta   Ti   V 
   6   5   6   6   6
Direct configuration=    23
   0.96487581  0.93880871  0.39586333
   0.62673091  0.27049260  0.40253119
   0.50481553  0.00198121 -0.00593378
  -0.00171681  0.00754542 -0.00012803