  29  29   0   0
  0.1632129E+02  0.5473281E-09  0.8209921E-09  0.1128346E-08  0.5000000E-15
  1.000000000000000E-004
  CAR 
 Nb - Mo - Ta - Ti - V SQS               
     11.63163863    -50.31981562  301      6.61307414      1.00000000
    -50.320  0.0000E+00  0.0000E+00
    -50.113  0.0000E+00  0.0000E+00
    -49.907  0.0000E+00  0.0000E+00
    -49.700  0.0000E+00  0.0000E+00
    -49.494  0.0000E+00  0.0000E+00
    -49.287 -0.5090E-35 -0.1051E-35
    -49.081 -0.1709E-27 -0.3529E-28
    -48.874 -0.6530E-21 -0.1348E-21
    -48.668 -0.2865E-15 -0.5917E-16
    -48.461 -0.1469E-10 -0.3033E-11
    -48.255 -0.8728E-07 -0.1803E-07
    -48.048 -0.5853E-04 -0.1211E-04
    -47.842 -0.4142E-02 -0.8674E-03
    -47.635 -0.1026E-01 -0.2985E-02
    -47.429  0.2830E+00  0.5546E-01
    -47.222  0.6325E+00  0.1861E+00
    -47.016  0.2721E+00  0.2423E+00
    -46.809 -0.6423E-02  0.2409E+00
    -46.603 -0.4410E-02  0.2400E+00
    -46.396 -0.6390E-04  0.2400E+00
    -46.190 -0.9233E-07  0.2400E+00
    -45.983 -0.1478E-10  0.2400E+00
    -45.777 -0.2598E-15  0.2400E+00
    -45.570  0.0000E+00  0.2400E+00
    -45.364  0.0000E+00  0.2400E+00
    -45.157  0.0000E+00  0.2400E+00
    -44.951  0.0000E+00  0.2400E+00
    -44.744  0.0000E+00  0.2400E+00
    -44.538  0.0000E+00  0.2400E+00
    -44.331  0.0000E+00  0.2400E+00
    -44.125  0.0000E+00  0.2400E+00
    -43.918  0.0000E+00  0.2400E+00
    -43.712  0.0000E+00  0.2400E+00
    -43.505  0.0000E+00  0.2400E+00
    -43.299  0.0000E+00  0.2400E+00
    -43.092  0.0000E+00  0.2400E+00
    -42.886  0.0000E+00  0.2400E+00
    -42.679  0.0000E+00  0.2400E+00
    -42.473  0.0000E+00  0.2400E+00
    -42.266  0.0000E+00  0.2400E+00
    -42.060  0.0000E+00  0.2400E+00
    -41.853  0.0000E+00  0.2400E+00
    -41.647  0.0000E+00  0.2400E+00
    -41.440  0.0000E+00  0.2400E+00
    -41.234  0.0000E+00  0.2400E+00
    -41.027  0.0000E+00  0.2400E+00
    -40.821  0.0000E+00  0.2400E+00
    -40.614  0.0000E+00  0.2400E+00
    -40.408  0.0000E+00  0.2400E+00
    -40.201  0.0000E+00  0.2400E+00
    -39.995  0.0000E+00  0.2400E+00
    -39.788  0.0000E+00  0.2400E+00
    -39.582  0.0000E+00  0.2400E+00
    -39.375  0.0000E+00  0.2400E+00
    -39.169  0.0000E+00  0.2400E+00
    -38.962  0.0000E+00  0.2400E+00
    -38.756  0.0000E+00  0.2400E+00
    -38.549  0.0000E+00  0.2400E+00
    -38.343  0.0000E+00  0.2400E+00
    -38.136  0.0000E+00  0.2400E+00
    -37.930  0.0000E+00  0.2400E+00
    -37.723  0.0000E+00  0.2400E+00
    -37.517  0.0000E+00  0.2400E+00
    -37.310  0.0000E+00  0.2400E+00
    -37.104  0.0000E+00  0.2400E+00
    -36.897  0.0000E+00  0.2400E+00
    -36.690  0.0000E+00  0.2400E+00
    -36.484  0.0000E+00  0.2400E+00
    -36.277  0.0000E+00  0.2400E+00
    -36.071  0.0000E+00  0.2400E+00
    -35.864  0.0000E+00  0.2400E+00
    -35.658  0.0000E+00  0.2400E+00
    -35.451  0.0000E+00  0.2400E+00
    -35.245  0.0000E+00  0.2400E+00
    -35.038  0.0000E+00  0.2400E+00
    -34.832  0.0000E+00  0.2400E+00
    -34.625  0.0000E+00  0.2400E+00
    -34.419  0.0000E+00  0.2400E+00
    -34.212  0.0000E+00  0.2400E+00
    -34.006  0.0000E+00  0.2400E+00
    -33.799  0.0000E+00  0.2400E+00
    -33.593  0.0000E+00  0.2400E+00
    -33.386  0.0000E+00  0.2400E+00
    -33.180  0.0000E+00  0.2400E+00
    -32.973  0.0000E+00  0.2400E+00
    -32.767  0.0000E+00  0.2400E+00
    -32.560  0.0000E+00  0.2400E+00
    -32.354  0.0000E+00  0.2400E+00
    -32.147  0.0000E+00  0.2400E+00
    -31.941  0.0000E+00  0.2400E+00
    -31.734  0.0000E+00  0.2400E+00
    -31.528  0.0000E+00  0.2400E+00
    -31.321  0.0000E+00  0.2400E+00
    -31.115  0.0000E+00  0.2400E+00
    -30.908  0.0000E+00  0.2400E+00
    -30.702  0.0000E+00  0.2400E+00
    -30.495  0.0000E+00  0.2400E+00
    -30.289  0.0000E+00  0.2400E+00
    -30.082  0.0000E+00  0.2400E+00
    -29.876  0.0000E+00  0.2400E+00
    -29.669  0.0000E+00  0.2400E+00
    -29.463  0.0000E+00  0.2400E+00
    -29.256  0.0000E+00  0.2400E+00
    -29.050  0.0000E+00  0.2400E+00
    -28.843  0.0000E+00  0.2400E+00
    -28.637  0.0000E+00  0.2400E+00
    -28.430  0.0000E+00  0.2400E+00
    -28.224  0.0000E+00  0.2400E+00
    -28.017  0.0000E+00  0.2400E+00
    -27.811  0.0000E+00  0.2400E+00
    -27.604  0.0000E+00  0.2400E+00
    -27.398  0.0000E+00  0.2400E+00
    -27.191  0.0000E+00  0.2400E+00
    -26.985  0.0000E+00  0.2400E+00
    -26.778  0.0000E+00  0.2400E+00
    -26.572  0.0000E+00  0.2400E+00
    -26.365  0.0000E+00  0.2400E+00
    -26.159  0.0000E+00  0.2400E+00
    -25.952 -0.1496E-33  0.2400E+00
    -25.746 -0.2755E-26  0.2400E+00
    -25.539 -0.5965E-20  0.2400E+00
    -25.333 -0.1471E-14  0.2400E+00
    -25.126 -0.4335E-10  0.2400E+00
    -24.920 -0.1483E-06  0.2400E+00
    -24.713 -0.5757E-04  0.2400E+00
    -24.507 -0.2316E-02  0.2395E+00
    -24.300  0.1000E-02  0.2397E+00
    -24.094  0.1207E+00  0.2646E+00
    -23.887  0.2666E+00  0.3197E+00
    -23.681  0.5011E+00  0.4232E+00
    -23.474  0.1063E+01  0.6427E+00
    -23.268  0.8489E+00  0.8180E+00
    -23.061  0.3956E+00  0.8997E+00
    -22.855  0.2735E+00  0.9561E+00
    -22.648  0.2592E-01  0.9615E+00
    -22.442 -0.7032E-02  0.9600E+00
    -22.235 -0.2130E-03  0.9600E+00
    -22.029 -0.5569E-06  0.9600E+00
    -21.822 -0.1561E-09  0.9600E+00
    -21.616 -0.4963E-14  0.9600E+00
    -21.409  0.0000E+00  0.9600E+00
    -21.203  0.0000E+00  0.9600E+00
    -20.996  0.0000E+00  0.9600E+00
    -20.790  0.0000E+00  0.9600E+00
    -20.583  0.0000E+00  0.9600E+00
    -20.377  0.0000E+00  0.9600E+00
    -20.170  0.0000E+00  0.9600E+00
    -19.964  0.0000E+00  0.9600E+00
    -19.757  0.0000E+00  0.9600E+00
    -19.551  0.0000E+00  0.9600E+00
    -19.344  0.0000E+00  0.9600E+00
    -19.138  0.0000E+00  0.9600E+00
    -18.931  0.0000E+00  0.9600E+00
    -18.725  0.0000E+00  0.9600E+00
    -18.518  0.0000E+00  0.9600E+00
    -18.312  0.0000E+00  0.9600E+00
    -18.105  0.0000E+00  0.9600E+00
    -17.899  0.0000E+00  0.9600E+00
    -17.692  0.0000E+00  0.9600E+00
    -17.486  0.0000E+00  0.9600E+00
    -17.279  0.0000E+00  0.9600E+00
    -17.073  0.0000E+00  0.9600E+00
    -16.866  0.0000E+00  0.9600E+00
    -16.660  0.0000E+00  0.9600E+00
    -16.453  0.0000E+00  0.9600E+00
    -16.247  0.0000E+00  0.9600E+00
    -16.040  0.0000E+00  0.9600E+00
    -15.834  0.0000E+00  0.9600E+00
    -15.627  0.0000E+00  0.9600E+00
    -15.420  0.0000E+00  0.9600E+00
    -15.214  0.0000E+00  0.9600E+00
    -15.007  0.0000E+00  0.9600E+00
    -14.801  0.0000E+00  0.9600E+00
    -14.594  0.0000E+00  0.9600E+00
    -14.388  0.0000E+00  0.9600E+00
    -14.181  0.0000E+00  0.9600E+00
    -13.975  0.0000E+00  0.9600E+00
    -13.768  0.0000E+00  0.9600E+00
    -13.562  0.0000E+00  0.9600E+00
    -13.355  0.0000E+00  0.9600E+00
    -13.149  0.0000E+00  0.9600E+00
    -12.942  0.0000E+00  0.9600E+00
    -12.736  0.0000E+00  0.9600E+00
    -12.529  0.0000E+00  0.9600E+00
    -12.323  0.0000E+00  0.9600E+00
    -12.116  0.0000E+00  0.9600E+00
    -11.910  0.0000E+00  0.9600E+00
    -11.703  0.0000E+00  0.9600E+00
    -11.497  0.0000E+00  0.9600E+00
    -11.290  0.0000E+00  0.9600E+00
    -11.084  0.0000E+00  0.9600E+00
    -10.877  0.0000E+00  0.9600E+00
    -10.671  0.0000E+00  0.9600E+00
    -10.464  0.0000E+00  0.9600E+00
    -10.258  0.0000E+00  0.9600E+00
    -10.051  0.0000E+00  0.9600E+00
     -9.845  0.0000E+00  0.9600E+00
     -9.638  0.0000E+00  0.9600E+00
     -9.432  0.0000E+00  0.9600E+00
     -9.225  0.0000E+00  0.9600E+00
     -9.019  0.0000E+00  0.9600E+00
     -8.812  0.0000E+00  0.9600E+00
     -8.606  0.0000E+00  0.9600E+00
     -8.399  0.0000E+00  0.9600E+00
     -8.193  0.0000E+00  0.9600E+00
     -7.986  0.0000E+00  0.9600E+00
     -7.780  0.0000E+00  0.9600E+00
     -7.573  0.0000E+00  0.9600E+00
     -7.367  0.0000E+00  0.9600E+00
     -7.160  0.0000E+00  0.9600E+00
     -6.954  0.0000E+00  0.9600E+00
     -6.747  0.0000E+00  0.9600E+00
     -6.541  0.0000E+00  0.9600E+00
     -6.334  0.0000E+00  0.9600E+00
     -6.128  0.0000E+00  0.9600E+00
     -5.921  0.0000E+00  0.9600E+00
     -5.715  0.0000E+00  0.9600E+00
     -5.508  0.0000E+00  0.9600E+00
     -5.302  0.0000E+00  0.9600E+00
     -5.095  0.0000E+00  0.9600E+00
     -4.889  0.0000E+00  0.9600E+00
     -4.682  0.0000E+00  0.9600E+00
     -4.476  0.0000E+00  0.9600E+00
     -4.269  0.0000E+00  0.9600E+00
     -4.063  0.0000E+00  0.9600E+00
     -3.856  0.0000E+00  0.9600E+00
     -3.650  0.0000E+00  0.9600E+00
     -3.443  0.0000E+00  0.9600E+00
     -3.237  0.0000E+00  0.9600E+00
     -3.030  0.0000E+00  0.9600E+00
     -2.824  0.0000E+00  0.9600E+00
     -2.617  0.0000E+00  0.9600E+00
     -2.411  0.0000E+00  0.9600E+00
     -2.204  0.0000E+00  0.9600E+00
     -1.998  0.0000E+00  0.9600E+00
     -1.791 -0.4596E-33  0.9600E+00
     -1.585 -0.4789E-26  0.9600E+00
     -1.378 -0.5926E-20  0.9600E+00
     -1.172 -0.8441E-15  0.9600E+00
     -0.965 -0.1468E-10  0.9600E+00
     -0.759 -0.3053E-07  0.9600E+00
     -0.552 -0.7581E-05  0.9600E+00
     -0.346 -0.2060E-03  0.9600E+00
     -0.139  0.3878E-03  0.9600E+00
      0.067  0.1011E-01  0.9621E+00
      0.274  0.2295E-01  0.9669E+00
      0.480  0.2913E-01  0.9729E+00
      0.687  0.4179E-01  0.9815E+00
      0.893  0.4004E-01  0.9898E+00
      1.100  0.5136E-01  0.1000E+01
      1.306  0.6091E-01  0.1013E+01
      1.513  0.6084E-01  0.1026E+01
      1.719  0.7142E-01  0.1040E+01
      1.926  0.8615E-01  0.1058E+01
      2.132  0.1023E+00  0.1079E+01
      2.339  0.1172E+00  0.1103E+01
      2.545  0.1895E+00  0.1143E+01
      2.752  0.2882E+00  0.1202E+01
      2.958  0.4112E+00  0.1287E+01
      3.165  0.5129E+00  0.1393E+01
      3.371  0.5881E+00  0.1514E+01
      3.578  0.6179E+00  0.1642E+01
      3.784  0.6372E+00  0.1774E+01
      3.991  0.6283E+00  0.1903E+01
      4.197  0.6178E+00  0.2031E+01
      4.404  0.5853E+00  0.2152E+01
      4.610  0.5588E+00  0.2267E+01
      4.817  0.5831E+00  0.2388E+01
      5.023  0.6898E+00  0.2530E+01
      5.230  0.8122E+00  0.2698E+01
      5.436  0.8397E+00  0.2871E+01
      5.643  0.8388E+00  0.3044E+01
      5.850  0.8090E+00  0.3211E+01
      6.056  0.8353E+00  0.3384E+01
      6.263  0.8967E+00  0.3569E+01
      6.469  0.8641E+00  0.3748E+01
      6.676  0.7698E+00  0.3906E+01
      6.882  0.6789E+00  0.4047E+01
      7.089  0.5444E+00  0.4159E+01
      7.295  0.4397E+00  0.4250E+01
      7.502  0.3967E+00  0.4332E+01
      7.708  0.3841E+00  0.4411E+01
      7.915  0.3884E+00  0.4491E+01
      8.121  0.4372E+00  0.4582E+01
      8.328  0.4924E+00  0.4683E+01
      8.534  0.3842E+00  0.4763E+01
      8.741  0.1693E+00  0.4798E+01
      8.947  0.1539E-01  0.4801E+01
      9.154 -0.3624E-02  0.4800E+01
      9.360 -0.2368E-03  0.4800E+01
      9.567 -0.1760E-05  0.4800E+01
      9.773 -0.1789E-08  0.4800E+01
      9.980 -0.2473E-12  0.4800E+01
     10.186 -0.4013E-17  0.4800E+01
     10.393  0.0000E+00  0.4800E+01
     10.599  0.0000E+00  0.4800E+01
     10.806  0.0000E+00  0.4800E+01
     11.012  0.0000E+00  0.4800E+01
     11.219  0.0000E+00  0.4800E+01
     11.425  0.0000E+00  0.4800E+01
     11.632  0.0000E+00  0.4800E+01
