   29   29   50    1
  0.1632129E+02  0.5473281E-09  0.8209921E-09  0.1128346E-08  0.5000000E-15
  1.000000000000000E-004
  CAR 
 Nb - Mo - Ta - Ti - V SQS               
    193    172    120
 
  0.0000000E+00  0.0000000E+00  0.0000000E+00  0.2915452E-02
    1      -47.503840   1.000000
    2      -47.398723   1.000000
    3      -47.356855   1.000000
    4      -47.309968   1.000000
    5      -47.227455   1.000000
    6      -47.161440   1.000000
    7      -24.217871   1.000000
    8      -24.038946   1.000000
    9      -23.845279   1.000000
   10      -23.795449   1.000000
   11      -23.647709   1.000000
   12      -23.616230   1.000000
   13      -23.587466   1.000000
   14      -23.569580   1.000000
   15      -23.529249   1.000000
   16      -23.476391   1.000000
   17      -23.446893   1.000000
   18      -23.405370   1.000000
   19      -23.376493   1.000000
   20      -23.362016   1.000000
   21      -23.204711   1.000000
   22      -23.103078   1.000000
   23      -22.966547   1.000000
   24      -22.932889   1.000000
   25       -0.114813   1.000000
   26        1.222749   1.000000
   27        1.560769   1.000000
   28        2.236797   1.000000
   29        2.420918   1.000000
   30        2.567617   1.000000
   31        2.656150   1.000000
   32        2.751507   1.000000
   33        2.842283   1.000000
   34        2.868734   1.000000
   35        2.881488   1.000000
   36        2.967398   1.000000
   37        3.045287   1.000000
   38        3.116840   1.000000
   39        3.186612   1.000000
   40        3.251996   1.000000
   41        3.297767   1.000000
   42        3.468345   1.000000
   43        3.505576   1.000000
   44        3.577819   1.000000
   45        3.621270   1.000000
   46        3.675043   1.000000
   47        3.747572   1.000000
   48        3.763654   1.000000
   49        3.863139   1.000000
   50        3.967228   1.000000
   51        4.113594   1.000000
   52        4.185148   1.000000
   53        4.221383   1.000000
   54        4.273796   1.000000
   55        4.312810   1.000000
   56        4.368043   1.000000
   57        4.423117   1.000000
   58        4.516823   1.000000
   59        4.608286   1.000000
   60        4.668520   1.000000
   61        4.808802   1.000000
   62        4.860716   1.000000
   63        4.875666   1.000000
   64        4.962544   1.000000
   65        5.030651   1.000000
   66        5.078241   1.000000
   67        5.104514   1.000000
   68        5.193436   1.000000
   69        5.235105   1.000000
   70        5.279225   1.000000
   71        5.305396   1.000000
   72        5.334903   1.000000
   73        5.411352   1.000000
   74        5.442086   1.000000
   75        5.521063   1.000000
   76        5.549612   1.000000
   77        5.598113   1.000000
   78        5.695631   1.000000
   79        5.792641   1.000000
   80        5.861542   1.000001
   81        5.904440   1.000003
   82        6.000578   1.000066
   83        6.049948   1.000252
   84        6.127077   1.001574
   85        6.146880   1.002383
   86        6.181745   1.004666
   87        6.240009   1.012050
   88        6.280022   1.020085
   89        6.341153   1.033141
   90        6.358999   1.035156
   91        6.427590   1.015864
   92        6.474084   0.958098
   93        6.611257   0.507689
   94        6.658316   0.313889
   95        6.691938   0.193325
   96        6.765082   0.020894
   97        6.850799  -0.035247
   98        6.898699  -0.030700
   99        6.997233  -0.010239
  100        7.045552  -0.004570
  101        7.141491  -0.000600
  102        7.169582  -0.000299
  103        7.215187  -0.000088
  104        7.357682  -0.000001
  105        7.607695  -0.000000
  106        7.669250  -0.000000
  107        7.738506  -0.000000
  108        7.775672  -0.000000
  109        7.913841  -0.000000
  110        8.053433  -0.000000
  111        8.140701  -0.000000
  112        8.334082  -0.000000
  113        8.373622  -0.000000
  114        8.482899  -0.000000
  115        8.501947  -0.000000
  116        8.624770  -0.000000
  117        8.650683  -0.000000
  118        8.687991  -0.000000
  119        8.723199  -0.000000
  120        8.752521  -0.000000
 
  0.1428571E+00  0.0000000E+00 -0.1561251E-16  0.5830904E-02
    1      -47.497980   1.000000
    2      -47.398571   1.000000
    3      -47.356864   1.000000
    4      -47.315212   1.000000
    5      -47.227888   1.000000
    6      -47.161431   1.000000
    7      -24.163922   1.000000
    8      -24.037566   1.000000
    9      -23.842268   1.000000
   10      -23.791593   1.000000
   11      -23.641715   1.000000
   12      -23.621271   1.000000
   13      -23.588001   1.000000
   14      -23.572400   1.000000
   15      -23.531045   1.000000
   16      -23.480855   1.000000
   17      -23.449421   1.000000
   18      -23.406580   1.000000
   19      -23.377468   1.000000
   20      -23.363670   1.000000
   21      -23.209181   1.000000
   22      -23.106962   1.000000
   23      -23.008259   1.000000
   24      -22.951569   1.000000
   25        0.046188   1.000000
   26        1.366988   1.000000
   27        1.687694   1.000000
   28        2.291290   1.000000
   29        2.525486   1.000000
   30        2.658829   1.000000
   31        2.763483   1.000000
   32        2.842541   1.000000
   33        2.865603   1.000000
   34        2.955225   1.000000
   35        3.018371   1.000000
   36        3.071266   1.000000
   37        3.147636   1.000000
   38        3.165658   1.000000
   39        3.257240   1.000000
   40        3.340832   1.000000
   41        3.394765   1.000000
   42        3.479034   1.000000
   43        3.522797   1.000000
   44        3.603081   1.000000
   45        3.653639   1.000000
   46        3.705142   1.000000
   47        3.838481   1.000000
   48        3.866248   1.000000
   49        3.930680   1.000000
   50        4.040242   1.000000
   51        4.115197   1.000000
   52        4.184885   1.000000
   53        4.217491   1.000000
   54        4.295452   1.000000
   55        4.339508   1.000000
   56        4.398600   1.000000
   57        4.459431   1.000000
   58        4.592639   1.000000
   59        4.636738   1.000000
   60        4.692910   1.000000
   61        4.807005   1.000000
   62        4.926740   1.000000
   63        4.953057   1.000000
   64        5.006646   1.000000
   65        5.041000   1.000000
   66        5.119186   1.000000
   67        5.158382   1.000000
   68        5.221235   1.000000
   69        5.249780   1.000000
   70        5.312987   1.000000
   71        5.347821   1.000000
   72        5.368758   1.000000
   73        5.419919   1.000000
   74        5.516424   1.000000
   75        5.532610   1.000000
   76        5.588566   1.000000
   77        5.621526   1.000000
   78        5.690056   1.000000
   79        5.727554   1.000000
   80        5.776461   1.000000
   81        5.887002   1.000002
   82        5.955400   1.000017
   83        6.013293   1.000094
   84        6.048750   1.000245
   85        6.095518   1.000775
   86        6.197680   1.006185
   87        6.232327   1.010775
   88        6.284009   1.020985
   89        6.321277   1.029436
   90        6.375477   1.035239
   91        6.385547   1.034145
   92        6.437451   1.007422
   93        6.482049   0.943220
   94        6.569210   0.680748
   95        6.594406   0.578613
   96        6.688160   0.205746
   97        6.754216   0.038149
   98        6.794406  -0.012533
   99        6.900885  -0.030261
  100        6.975983  -0.013879
  101        7.031505  -0.005869
  102        7.101074  -0.001508
  103        7.218096  -0.000081
  104        7.292996  -0.000008
  105        7.323202  -0.000003
  106        7.442127  -0.000000
  107        7.601866  -0.000000
  108        7.607944  -0.000000
  109        7.693062  -0.000000
  110        7.911231  -0.000000
  111        8.003983  -0.000000
  112        8.090125  -0.000000
  113        8.128975  -0.000000
  114        8.253231  -0.000000
  115        8.293690  -0.000000
  116        8.323210  -0.000000
  117        8.404657  -0.000000
  118        8.480807  -0.000000
  119        8.515951  -0.000000
  120        8.538188  -0.000000
 
  0.2857143E+00  0.1387779E-16  0.3469447E-17  0.5830904E-02
    1      -47.483098   1.000000
    2      -47.398429   1.000000
    3      -47.357311   1.000000
    4      -47.328240   1.000000
    5      -47.228699   1.000000
    6      -47.161413   1.000000
    7      -24.053580   1.000000
    8      -23.994665   1.000000
    9      -23.834554   1.000000
   10      -23.780606   1.000000
   11      -23.634180   1.000000
   12      -23.625365   1.000000
   13      -23.590200   1.000000
   14      -23.578075   1.000000
   15      -23.535081   1.000000
   16      -23.493904   1.000000
   17      -23.454068   1.000000
   18      -23.409711   1.000000
   19      -23.379656   1.000000
   20      -23.367554   1.000000
   21      -23.250390   1.000000
   22      -23.142743   1.000000
   23      -23.112045   1.000000
   24      -22.955812   1.000000
   25        0.504161   1.000000
   26        1.756005   1.000000
   27        2.026604   1.000000
   28        2.440545   1.000000
   29        2.657767   1.000000
   30        2.818011   1.000000
   31        2.924515   1.000000
   32        3.025867   1.000000
   33        3.073498   1.000000
   34        3.150092   1.000000
   35        3.205250   1.000000
   36        3.261733   1.000000
   37        3.326336   1.000000
   38        3.368377   1.000000
   39        3.432387   1.000000
   40        3.492362   1.000000
   41        3.539003   1.000000
   42        3.583550   1.000000
   43        3.659932   1.000000
   44        3.703715   1.000000
   45        3.837274   1.000000
   46        3.878147   1.000000
   47        3.909611   1.000000
   48        3.952164   1.000000
   49        4.015642   1.000000
   50        4.148539   1.000000
   51        4.238322   1.000000
   52        4.264747   1.000000
   53        4.359216   1.000000
   54        4.401006   1.000000
   55        4.463807   1.000000
   56        4.546333   1.000000
   57        4.589297   1.000000
   58        4.644002   1.000000
   59        4.711428   1.000000
   60        4.788848   1.000000
   61        4.874750   1.000000
   62        4.935533   1.000000
   63        4.988924   1.000000
   64        5.053454   1.000000
   65        5.092741   1.000000
   66        5.154252   1.000000
   67        5.218037   1.000000
   68        5.250311   1.000000
   69        5.301127   1.000000
   70        5.364614   1.000000
   71        5.386973   1.000000
   72        5.434653   1.000000
   73        5.482343   1.000000
   74        5.512667   1.000000
   75        5.574841   1.000000
   76        5.605913   1.000000
   77        5.641658   1.000000
   78        5.674423   1.000000
   79        5.761198   1.000000
   80        5.775071   1.000000
   81        5.834804   1.000000
   82        5.880224   1.000001
   83        5.937699   1.000010
   84        5.969747   1.000026
   85        6.034865   1.000170
   86        6.092319   1.000719
   87        6.167131   1.003553
   88        6.194037   1.005808
   89        6.220722   1.009028
   90        6.268504   1.017563
   91        6.342295   1.033315
   92        6.426450   1.016722
   93        6.439368   1.005562
   94        6.489246   0.928418
   95        6.535087   0.803821
   96        6.598874   0.559920
   97        6.618447   0.477275
   98        6.664203   0.291296
   99        6.700443   0.166534
  100        6.787109  -0.005887
  101        6.828226  -0.031308
  102        6.872548  -0.034723
  103        6.925395  -0.024843
  104        6.964035  -0.016227
  105        7.035931  -0.005432
  106        7.093726  -0.001765
  107        7.266114  -0.000020
  108        7.378010  -0.000000
  109        7.468564  -0.000000
  110        7.514770  -0.000000
  111        7.638184  -0.000000
  112        7.682285  -0.000000
  113        7.757544  -0.000000
  114        7.825852  -0.000000
  115        7.891228  -0.000000
  116        7.971621  -0.000000
  117        8.089388  -0.000000
  118        8.125954  -0.000000
  119        8.219731  -0.000000
  120        8.352054  -0.000000
 
  0.4285714E+00  0.5551115E-16 -0.4163336E-16  0.5830904E-02
    1      -47.468450   1.000000
    2      -47.398815   1.000000
    3      -47.359115   1.000000
    4      -47.339592   1.000000
    5      -47.229215   1.000000
    6      -47.161398   1.000000
    7      -24.044655   1.000000
    8      -23.846765   1.000000
    9      -23.803986   1.000000
   10      -23.736402   1.000000
   11      -23.646423   1.000000
   12      -23.610805   1.000000
   13      -23.592611   1.000000
   14      -23.581293   1.000000
   15      -23.538456   1.000000
   16      -23.508655   1.000000
   17      -23.458722   1.000000
   18      -23.447284   1.000000
   19      -23.407274   1.000000
   20      -23.379987   1.000000
   21      -23.368349   1.000000
   22      -23.181973   1.000000
   23      -23.120384   1.000000
   24      -22.956915   1.000000
   25        1.175416   1.000000
   26        1.945349   1.000000
   27        2.308512   1.000000
   28        2.510523   1.000000
   29        2.707796   1.000000
   30        2.872335   1.000000
   31        3.041924   1.000000
   32        3.142379   1.000000
   33        3.201377   1.000000
   34        3.272503   1.000000
   35        3.354793   1.000000
   36        3.377611   1.000000
   37        3.417400   1.000000
   38        3.480862   1.000000
   39        3.619744   1.000000
   40        3.659268   1.000000
   41        3.712950   1.000000
   42        3.765878   1.000000
   43        3.815448   1.000000
   44        3.892371   1.000000
   45        3.931064   1.000000
   46        3.977940   1.000000
   47        4.072737   1.000000
   48        4.122203   1.000000
   49        4.174212   1.000000
   50        4.207043   1.000000
   51        4.322563   1.000000
   52        4.419147   1.000000
   53        4.468352   1.000000
   54        4.491818   1.000000
   55        4.606478   1.000000
   56        4.636772   1.000000
   57        4.695897   1.000000
   58        4.740937   1.000000
   59        4.781910   1.000000
   60        4.849588   1.000000
   61        4.885317   1.000000
   62        4.948380   1.000000
   63        5.015721   1.000000
   64        5.048205   1.000000
   65        5.133384   1.000000
   66        5.139201   1.000000
   67        5.172701   1.000000
   68        5.226068   1.000000
   69        5.294263   1.000000
   70        5.339734   1.000000
   71        5.380099   1.000000
   72        5.441922   1.000000
   73        5.491435   1.000000
   74        5.566536   1.000000
   75        5.584347   1.000000
   76        5.618113   1.000000
   77        5.669425   1.000000
   78        5.715840   1.000000
   79        5.737534   1.000000
   80        5.784978   1.000000
   81        5.837148   1.000000
   82        5.887846   1.000002
   83        5.913228   1.000004
   84        5.955398   1.000017
   85        6.009310   1.000084
   86        6.051252   1.000261
   87        6.092176   1.000717
   88        6.138992   1.002026
   89        6.186751   1.005107
   90        6.198400   1.006262
   91        6.232039   1.010729
   92        6.276992   1.019409
   93        6.336149   1.032319
   94        6.367807   1.035458
   95        6.436926   1.007918
   96        6.463164   0.975992
   97        6.511594   0.874134
   98        6.584159   0.620946
   99        6.622560   0.459913
  100        6.649393   0.349097
  101        6.722865   0.104208
  102        6.782845  -0.001511
  103        6.849037  -0.035127
  104        6.893204  -0.031748
  105        6.936208  -0.022343
  106        7.011102  -0.008252
  107        7.064419  -0.003202
  108        7.134805  -0.000703
  109        7.265055  -0.000020
  110        7.316626  -0.000004
  111        7.469707  -0.000000
  112        7.514007  -0.000000
  113        7.558354  -0.000000
  114        7.631116  -0.000000
  115        7.702279  -0.000000
  116        7.801102  -0.000000
  117        7.908657  -0.000000
  118        7.961989  -0.000000
  119        8.126273  -0.000000
  120        8.200568  -0.000000
 
 -0.6938894E-17  0.1428571E+00  0.1040834E-16  0.5830904E-02
    1      -47.503838   1.000000
    2      -47.398658   1.000000
    3      -47.356811   1.000000
    4      -47.309970   1.000000
    5      -47.227462   1.000000
    6      -47.161542   1.000000
    7      -24.217874   1.000000
    8      -24.038386   1.000000
    9      -23.843161   1.000000
   10      -23.794965   1.000000
   11      -23.647786   1.000000
   12      -23.616248   1.000000
   13      -23.587466   1.000000
   14      -23.569658   1.000000
   15      -23.529252   1.000000
   16      -23.476441   1.000000
   17      -23.446908   1.000000
   18      -23.405321   1.000000
   19      -23.376533   1.000000
   20      -23.361933   1.000000
   21      -23.204725   1.000000
   22      -23.106491   1.000000
   23      -22.966787   1.000000
   24      -22.932946   1.000000
   25       -0.044741   1.000000
   26        1.252839   1.000000
   27        1.613268   1.000000
   28        2.067831   1.000000
   29        2.423454   1.000000
   30        2.527672   1.000000
   31        2.629833   1.000000
   32        2.758827   1.000000
   33        2.831162   1.000000
   34        2.876097   1.000000
   35        2.903875   1.000000
   36        2.936746   1.000000
   37        3.015723   1.000000
   38        3.087002   1.000000
   39        3.239848   1.000000
   40        3.294420   1.000000
   41        3.331343   1.000000
   42        3.412149   1.000000
   43        3.505368   1.000000
   44        3.541412   1.000000
   45        3.607142   1.000000
   46        3.676936   1.000000
   47        3.773691   1.000000
   48        3.844931   1.000000
   49        3.912416   1.000000
   50        4.020579   1.000000
   51        4.105224   1.000000
   52        4.143521   1.000000
   53        4.195333   1.000000
   54        4.269649   1.000000
   55        4.327923   1.000000
   56        4.381754   1.000000
   57        4.446721   1.000000
   58        4.505050   1.000000
   59        4.614377   1.000000
   60        4.710822   1.000000
   61        4.793994   1.000000
   62        4.882973   1.000000
   63        4.915899   1.000000
   64        4.965544   1.000000
   65        5.059075   1.000000
   66        5.106933   1.000000
   67        5.149792   1.000000
   68        5.204134   1.000000
   69        5.230072   1.000000
   70        5.267932   1.000000
   71        5.319267   1.000000
   72        5.381444   1.000000
   73        5.448919   1.000000
   74        5.491021   1.000000
   75        5.518582   1.000000
   76        5.566106   1.000000
   77        5.622393   1.000000
   78        5.703433   1.000000
   79        5.782658   1.000000
   80        5.836420   1.000000
   81        5.963381   1.000022
   82        5.992561   1.000052
   83        6.049710   1.000251
   84        6.084967   1.000604
   85        6.139502   1.002047
   86        6.164905   1.003404
   87        6.199335   1.006363
   88        6.255172   1.014838
   89        6.282665   1.020680
   90        6.319216   1.028997
   91        6.368523   1.035457
   92        6.438118   1.006784
   93        6.506678   0.887153
   94        6.610132   0.512449
   95        6.650991   0.342713
   96        6.728795   0.089817
   97        6.785584  -0.004365
   98        6.919974  -0.026090
   99        7.003506  -0.009302
  100        7.051494  -0.004095
  101        7.126458  -0.000854
  102        7.244556  -0.000038
  103        7.357954  -0.000001
  104        7.510922  -0.000000
  105        7.562314  -0.000000
  106        7.641477  -0.000000
  107        7.744406  -0.000000
  108        7.801623  -0.000000
  109        7.860638  -0.000000
  110        7.957524  -0.000000
  111        8.050283  -0.000000
  112        8.181133  -0.000000
  113        8.265437  -0.000000
  114        8.350128  -0.000000
  115        8.429783  -0.000000
  116        8.480435  -0.000000
  117        8.529428  -0.000000
  118        8.583221  -0.000000
  119        8.601302  -0.000000
  120        8.684200  -0.000000
 
  0.1428571E+00  0.1428571E+00 -0.1387779E-16  0.5830904E-02
    1      -47.497982   1.000000
    2      -47.398632   1.000000
    3      -47.356907   1.000000
    4      -47.315210   1.000000
    5      -47.227881   1.000000
    6      -47.161335   1.000000
    7      -24.163920   1.000000
    8      -24.038092   1.000000
    9      -23.844402   1.000000
   10      -23.791975   1.000000
   11      -23.641674   1.000000
   12      -23.621248   1.000000
   13      -23.588001   1.000000
   14      -23.572415   1.000000
   15      -23.531048   1.000000
   16      -23.480817   1.000000
   17      -23.449419   1.000000
   18      -23.406595   1.000000
   19      -23.377430   1.000000
   20      -23.363636   1.000000
   21      -23.209164   1.000000
   22      -23.103721   1.000000
   23      -23.008187   1.000000
   24      -22.951367   1.000000
   25        0.047821   1.000000
   26        1.345269   1.000000
   27        1.700723   1.000000
   28        2.300686   1.000000
   29        2.533257   1.000000
   30        2.643360   1.000000
   31        2.715552   1.000000
   32        2.808727   1.000000
   33        2.840516   1.000000
   34        2.909565   1.000000
   35        2.958723   1.000000
   36        3.033477   1.000000
   37        3.108325   1.000000
   38        3.184022   1.000000
   39        3.279315   1.000000
   40        3.338281   1.000000
   41        3.407873   1.000000
   42        3.484443   1.000000
   43        3.580830   1.000000
   44        3.607094   1.000000
   45        3.672687   1.000000
   46        3.688306   1.000000
   47        3.812881   1.000000
   48        3.853682   1.000000
   49        3.926420   1.000000
   50        4.037260   1.000000
   51        4.114225   1.000000
   52        4.198200   1.000000
   53        4.265941   1.000000
   54        4.300317   1.000000
   55        4.343633   1.000000
   56        4.436636   1.000000
   57        4.472323   1.000000
   58        4.550993   1.000000
   59        4.659035   1.000000
   60        4.782586   1.000000
   61        4.849227   1.000000
   62        4.876952   1.000000
   63        4.939207   1.000000
   64        4.968124   1.000000
   65        5.077593   1.000000
   66        5.113599   1.000000
   67        5.146009   1.000000
   68        5.177210   1.000000
   69        5.208070   1.000000
   70        5.244973   1.000000
   71        5.295857   1.000000
   72        5.383032   1.000000
   73        5.418902   1.000000
   74        5.492338   1.000000
   75        5.510469   1.000000
   76        5.555450   1.000000
   77        5.623045   1.000000
   78        5.674674   1.000000
   79        5.745328   1.000000
   80        5.814610   1.000000
   81        5.874979   1.000001
   82        5.915437   1.000005
   83        5.986016   1.000043
   84        6.025132   1.000130
   85        6.122250   1.001418
   86        6.160755   1.003141
   87        6.228942   1.010243
   88        6.263474   1.016507
   89        6.316789   1.028472
   90        6.360936   1.035268
   91        6.421700   1.020053
   92        6.475968   0.954721
   93        6.559669   0.717290
   94        6.615563   0.489472
   95        6.690752   0.197189
   96        6.713108   0.129810
   97        6.785210  -0.003984
   98        6.835893  -0.033275
   99        6.878965  -0.033998
  100        6.958615  -0.017357
  101        6.997083  -0.010262
  102        7.130713  -0.000774
  103        7.198253  -0.000140
  104        7.244608  -0.000038
  105        7.459609  -0.000000
  106        7.472958  -0.000000
  107        7.561594  -0.000000
  108        7.666644  -0.000000
  109        7.752091  -0.000000
  110        7.833506  -0.000000
  111        7.923273  -0.000000
  112        8.145468  -0.000000
  113        8.211909  -0.000000
  114        8.343337  -0.000000
  115        8.470275  -0.000000
  116        8.494929  -0.000000
  117        8.551175  -0.000000
  118        8.586522  -0.000000
  119        8.604093  -0.000000
  120        8.701806  -0.000000
 
  0.2857143E+00  0.1428571E+00  0.2775558E-16  0.5830904E-02
    1      -47.483103   1.000000
    2      -47.398564   1.000000
    3      -47.357419   1.000000
    4      -47.328233   1.000000
    5      -47.228684   1.000000
    6      -47.161191   1.000000
    7      -24.054387   1.000000
    8      -23.995095   1.000000
    9      -23.839752   1.000000
   10      -23.781163   1.000000
   11      -23.634163   1.000000
   12      -23.625212   1.000000
   13      -23.590230   1.000000
   14      -23.578032   1.000000
   15      -23.535081   1.000000
   16      -23.493825   1.000000
   17      -23.454050   1.000000
   18      -23.409765   1.000000
   19      -23.379566   1.000000
   20      -23.367540   1.000000
   21      -23.250363   1.000000
   22      -23.142214   1.000000
   23      -23.104963   1.000000
   24      -22.955297   1.000000
   25        0.442935   1.000000
   26        1.674790   1.000000
   27        1.990015   1.000000
   28        2.503462   1.000000
   29        2.680298   1.000000
   30        2.834234   1.000000
   31        2.901534   1.000000
   32        2.956619   1.000000
   33        3.025041   1.000000
   34        3.097027   1.000000
   35        3.190868   1.000000
   36        3.241611   1.000000
   37        3.295644   1.000000
   38        3.420123   1.000000
   39        3.444428   1.000000
   40        3.511309   1.000000
   41        3.549907   1.000000
   42        3.603255   1.000000
   43        3.684548   1.000000
   44        3.740362   1.000000
   45        3.820378   1.000000
   46        3.845216   1.000000
   47        3.935242   1.000000
   48        3.990871   1.000000
   49        4.035223   1.000000
   50        4.127202   1.000000
   51        4.171910   1.000000
   52        4.188143   1.000000
   53        4.319051   1.000000
   54        4.373555   1.000000
   55        4.505006   1.000000
   56        4.524712   1.000000
   57        4.560785   1.000000
   58        4.655007   1.000000
   59        4.723325   1.000000
   60        4.847604   1.000000
   61        4.909805   1.000000
   62        4.966131   1.000000
   63        4.983564   1.000000
   64        5.016278   1.000000
   65        5.087680   1.000000
   66        5.153645   1.000000
   67        5.177753   1.000000
   68        5.210407   1.000000
   69        5.284683   1.000000
   70        5.337303   1.000000
   71        5.366447   1.000000
   72        5.384754   1.000000
   73        5.418912   1.000000
   74        5.455363   1.000000
   75        5.509353   1.000000
   76        5.590872   1.000000
   77        5.622441   1.000000
   78        5.675350   1.000000
   79        5.732072   1.000000
   80        5.772523   1.000000
   81        5.848950   1.000000
   82        5.919923   1.000005
   83        5.988894   1.000047
   84        6.011510   1.000089
   85        6.062892   1.000351
   86        6.159333   1.003055
   87        6.175451   1.004156
   88        6.196408   1.006051
   89        6.271797   1.018270
   90        6.319957   1.029155
   91        6.362529   1.035342
   92        6.365645   1.035435
   93        6.400765   1.030391
   94        6.438170   1.006733
   95        6.500780   0.901974
   96        6.559556   0.717714
   97        6.604270   0.537214
   98        6.668282   0.275972
   99        6.727396   0.093133
  100        6.753876   0.038734
  101        6.773473   0.009444
  102        6.858895  -0.035455
  103        6.959826  -0.017101
  104        7.002634  -0.009429
  105        7.028129  -0.006221
  106        7.185003  -0.000200
  107        7.302369  -0.000006
  108        7.386065  -0.000000
  109        7.515556  -0.000000
  110        7.615267  -0.000000
  111        7.688343  -0.000000
  112        7.799599  -0.000000
  113        7.993127  -0.000000
  114        8.084055  -0.000000
  115        8.173314  -0.000000
  116        8.260369  -0.000000
  117        8.294899  -0.000000
  118        8.316431  -0.000000
  119        8.382618  -0.000000
  120        8.429640  -0.000000
 
  0.4285714E+00  0.1428571E+00 -0.2081668E-16  0.5830904E-02
    1      -47.468454   1.000000
    2      -47.398916   1.000000
    3      -47.359209   1.000000
    4      -47.339585   1.000000
    5      -47.229203   1.000000
    6      -47.161220   1.000000
    7      -24.045510   1.000000
    8      -23.849607   1.000000
    9      -23.805962   1.000000
   10      -23.736410   1.000000
   11      -23.646403   1.000000
   12      -23.610694   1.000000
   13      -23.592663   1.000000
   14      -23.581251   1.000000
   15      -23.538454   1.000000
   16      -23.508598   1.000000
   17      -23.458713   1.000000
   18      -23.447258   1.000000
   19      -23.407323   1.000000
   20      -23.379895   1.000000
   21      -23.368333   1.000000
   22      -23.181855   1.000000
   23      -23.114284   1.000000
   24      -22.956526   1.000000
   25        1.077748   1.000000
   26        2.003765   1.000000
   27        2.212395   1.000000
   28        2.427183   1.000000
   29        2.664663   1.000000
   30        2.821499   1.000000
   31        3.083590   1.000000
   32        3.166662   1.000000
   33        3.239767   1.000000
   34        3.313811   1.000000
   35        3.330010   1.000000
   36        3.435165   1.000000
   37        3.477716   1.000000
   38        3.531801   1.000000
   39        3.589678   1.000000
   40        3.645738   1.000000
   41        3.718439   1.000000
   42        3.780898   1.000000
   43        3.801008   1.000000
   44        3.867820   1.000000
   45        3.925376   1.000000
   46        3.993421   1.000000
   47        4.072876   1.000000