       N       E                     dE             d eps       ncg     rms          rms(c)
DAV:   1    -0.407640923047E+04   -0.40764E+04   -0.16485E+05 59592   0.198E+03
DAV:   2    -0.978813769494E+04   -0.57117E+04   -0.54369E+04 69264   0.123E+03
DAV:   3    -0.107096381700E+05   -0.92150E+03   -0.88250E+03 82560   0.551E+02
DAV:   4    -0.109718082333E+05   -0.26217E+03   -0.24485E+03 82560   0.251E+02
DAV:   5    -0.111229986332E+05   -0.15119E+03   -0.13931E+03 82560   0.177E+02    0.660E+03
DAV:   6    -0.926853520251E+03    0.10196E+05   -0.25120E+04 62028   0.643E+02    0.301E+03
DAV:   7    -0.592928573105E+03    0.33392E+03   -0.17669E+04 71028   0.598E+02    0.228E+03
DAV:   8    -0.577993901252E+03    0.14935E+02   -0.67340E+03 74076   0.421E+02    0.202E+03
DAV:   9    -0.475031802781E+03    0.10296E+03   -0.10909E+03 69336   0.109E+02    0.191E+03
DAV:  10    -0.561563455342E+03   -0.86532E+02   -0.28331E+02 82452   0.553E+01    0.196E+03
DAV:  11    -0.691669323623E+03   -0.13011E+03   -0.64655E+02 74304   0.132E+02    0.173E+03
DAV:  12    -0.701357637892E+03   -0.96883E+01   -0.81378E+02 79224   0.151E+02    0.129E+03
DAV:  13    -0.729277556001E+03   -0.27920E+02   -0.26146E+03 76368   0.158E+02    0.535E+02
DAV:  14    -0.533948283494E+03    0.19533E+03   -0.13668E+03 73068   0.155E+02    0.355E+02
DAV:  15    -0.464863275124E+03    0.69085E+02   -0.94976E+02 74184   0.150E+02    0.284E+02
DAV:  16    -0.395988521818E+03    0.68875E+02   -0.58423E+02 67260   0.890E+01    0.237E+02
DAV:  17    -0.399436502553E+03   -0.34480E+01   -0.69986E+02 74304   0.879E+01    0.250E+02
DAV:  18    -0.381471143249E+03    0.17965E+02   -0.30510E+02 75108   0.518E+01    0.183E+02
DAV:  19    -0.358797490201E+03    0.22674E+02   -0.11121E+02 77496   0.411E+01    0.162E+02
DAV:  20    -0.344006461680E+03    0.14791E+02   -0.25794E+02 75816   0.740E+01    0.138E+02
DAV:  21    -0.334946408269E+03    0.90601E+01   -0.16050E+02 75240   0.575E+01    0.105E+02
DAV:  22    -0.322232343438E+03    0.12714E+02   -0.13793E+02 74436   0.569E+01    0.836E+01
DAV:  23    -0.312911761617E+03    0.93206E+01   -0.10930E+02 68676   0.621E+01    0.631E+01
DAV:  24    -0.308811585792E+03    0.41002E+01   -0.34150E+01 78732   0.256E+01    0.570E+01
DAV:  25    -0.307574401781E+03    0.12372E+01   -0.17837E+01 70308   0.173E+01    0.552E+01
DAV:  26    -0.308738432274E+03   -0.11640E+01   -0.33746E+01 64248   0.273E+01    0.486E+01
DAV:  27    -0.306028881309E+03    0.27096E+01   -0.11394E+01 73632   0.108E+01    0.372E+01
DAV:  28    -0.303934276387E+03    0.20946E+01   -0.80395E+00 68256   0.851E+00    0.274E+01
DAV:  29    -0.303644267263E+03    0.29001E+00   -0.30380E+00 74412   0.546E+00    0.224E+01
DAV:  30    -0.303352205689E+03    0.29206E+00   -0.23751E+00 65412   0.630E+00    0.189E+01
DAV:  31    -0.303322549759E+03    0.29656E-01   -0.28191E-01 69852   0.194E+00    0.177E+01
DAV:  32    -0.303363547793E+03   -0.40998E-01   -0.71709E-01 67992   0.321E+00    0.158E+01
DAV:  33    -0.303358811290E+03    0.47365E-02   -0.65405E-01 67056   0.341E+00    0.127E+01
DAV:  34    -0.303221790368E+03    0.13702E+00   -0.62541E-01 70728   0.338E+00    0.113E+01
DAV:  35    -0.303247605575E+03   -0.25815E-01   -0.44458E-01 70968   0.282E+00    0.979E+00
DAV:  36    -0.303278550632E+03   -0.30945E-01   -0.15898E-01 74076   0.138E+00    0.898E+00
DAV:  37    -0.303185900641E+03    0.92650E-01   -0.16021E-01 72660   0.141E+00    0.803E+00
DAV:  38    -0.303149823203E+03    0.36077E-01   -0.15130E-01 74880   0.123E+00    0.598E+00
DAV:  39    -0.303115503742E+03    0.34319E-01   -0.59423E-02 67392   0.101E+00    0.473E+00
DAV:  40    -0.303097719263E+03    0.17784E-01   -0.56702E-02 72936   0.928E-01    0.428E+00
DAV:  41    -0.303096694463E+03    0.10248E-02   -0.32876E-02 65052   0.841E-01    0.352E+00
DAV:  42    -0.303070302810E+03    0.26392E-01   -0.37063E-02 71196   0.712E-01    0.266E+00
DAV:  43    -0.303062090667E+03    0.82121E-02   -0.36095E-02 70500   0.617E-01    0.183E+00
DAV:  44    -0.303062000751E+03    0.89916E-04   -0.90770E-03 65856   0.388E-01    0.156E+00
DAV:  45    -0.303059116417E+03    0.28843E-02   -0.25749E-03 62820   0.211E-01    0.115E+00
DAV:  46    -0.303057111357E+03    0.20051E-02   -0.21599E-03 60000   0.189E-01    0.794E-01
DAV:  47    -0.303056627798E+03    0.48356E-03   -0.34469E-04 37632   0.818E-02    0.656E-01
DAV:  48    -0.303056133385E+03    0.49441E-03   -0.49867E-04 35424   0.853E-02    0.478E-01
DAV:  49    -0.303055722187E+03    0.41120E-03   -0.14861E-03 59052   0.137E-01    0.271E-01
DAV:  50    -0.303055632408E+03    0.89778E-04   -0.12368E-04 27024   0.654E-02
   1 F= -.30305563E+03 E0= -.30305257E+03  d E =-.303056E+03
       N       E                     dE             d eps       ncg     rms          rms(c)
DAV:   1    -0.304618208542E+03   -0.15625E+01   -0.12201E+02 53856   0.479E+01    0.119E+01
DAV:   2    -0.305602813292E+03   -0.98460E+00   -0.27049E+01 74028   0.256E+01    0.105E+01
DAV:   3    -0.304798898104E+03    0.80392E+00   -0.21853E+01 72024   0.199E+01    0.109E+01
DAV:   4    -0.304080217981E+03    0.71868E+00   -0.14162E+01 66408   0.183E+01    0.775E+00
DAV:   5    -0.303650227014E+03    0.42999E+00   -0.64313E+00 71820   0.110E+01    0.450E+00
DAV:   6    -0.303515455015E+03    0.13477E+00   -0.27312E+00 72672   0.727E+00    0.335E+00
DAV:   7    -0.303434152451E+03    0.81303E-01   -0.13554E+00 76020   0.532E+00    0.204E+00
DAV:   8    -0.303411950761E+03    0.22202E-01   -0.45058E-01 79068   0.286E+00    0.137E+00
DAV:   9    -0.303403956237E+03    0.79945E-02   -0.14305E-01 74940   0.148E+00    0.102E+00
DAV:  10    -0.303403537726E+03    0.41851E-03   -0.59700E-02 74316   0.105E+00    0.858E-01
DAV:  11    -0.303406680406E+03   -0.31427E-02   -0.33426E-02 75996   0.759E-01    0.692E-01
DAV:  12    -0.303414935112E+03   -0.82547E-02   -0.61814E-02 66984   0.113E+00    0.804E-01
DAV:  13    -0.303411791091E+03    0.31440E-02   -0.50972E-02 70260   0.103E+00    0.355E-01
DAV:  14    -0.303411824729E+03   -0.33638E-04   -0.23423E-02 70548   0.673E-01    0.339E-01
DAV:  15    -0.303410941826E+03    0.88290E-03   -0.10742E-02 64968   0.491E-01    0.153E-01
DAV:  16    -0.303410758358E+03    0.18347E-03   -0.28896E-03 61968   0.236E-01    0.106E-01
DAV:  17    -0.303410716196E+03    0.42162E-04   -0.83648E-04 50844   0.137E-01
   2 F= -.30341072E+03 E0= -.30340757E+03  d E =-.355084E+00
       N       E                     dE             d eps       ncg     rms          rms(c)
DAV:   1    -0.303484944286E+03   -0.74186E-01   -0.50038E+00 54360   0.980E+00    0.234E+00
DAV:   2    -0.303521939643E+03   -0.36995E-01   -0.10303E+00 74736   0.486E+00    0.234E+00
DAV:   3    -0.303494856034E+03    0.27084E-01   -0.99962E-01 73740   0.430E+00    0.222E+00
DAV:   4    -0.303471568422E+03    0.23288E-01   -0.59093E-01 67308   0.353E+00    0.169E+00
DAV:   5    -0.303447693676E+03    0.23875E-01   -0.28683E-01 69444   0.234E+00    0.984E-01
DAV:   6    -0.303439826069E+03    0.78676E-02   -0.12900E-01 72588   0.159E+00    0.648E-01
DAV:   7    -0.303437214618E+03    0.26115E-02   -0.54477E-02 74376   0.112E+00    0.481E-01
DAV:   8    -0.303435846096E+03    0.13685E-02   -0.25153E-02 70800   0.716E-01    0.324E-01
DAV:   9    -0.303435378546E+03    0.46755E-03   -0.80365E-03 67092   0.369E-01    0.250E-01
DAV:  10    -0.303435135302E+03    0.24324E-03   -0.28297E-03 61068   0.237E-01    0.187E-01
DAV:  11    -0.303435159171E+03   -0.23869E-04   -0.92064E-04 52332   0.131E-01
   3 F= -.30343516E+03 E0= -.30343194E+03  d E =-.379527E+00
       N       E                     dE             d eps       ncg     rms          rms(c)
DAV:   1    -0.303546356898E+03   -0.11122E+00   -0.60701E+01 41280   0.262E+01    0.326E+00
DAV:   2    -0.304188297836E+03   -0.64194E+00   -0.69266E+00 69792   0.134E+01    0.568E+00
DAV:   3    -0.303859554280E+03    0.32874E+00   -0.35377E+00 69048   0.844E+00    0.282E+00
DAV:   4    -0.303846370212E+03    0.13184E-01   -0.99603E-01 66780   0.459E+00    0.254E+00
DAV:   5    -0.303793621088E+03    0.52749E-01   -0.53109E-01 69768   0.332E+00    0.127E+00
DAV:   6    -0.303786298686E+03    0.73224E-02   -0.20763E-01 72180   0.190E+00    0.107E+00
DAV:   7    -0.303786066500E+03    0.23219E-03   -0.14415E-01 73956   0.181E+00    0.108E+00
DAV:   8    -0.303775878194E+03    0.10188E-01   -0.95765E-02 72816   0.149E+00    0.519E-01
DAV:   9    -0.303773696851E+03    0.21813E-02   -0.25894E-02 74220   0.704E-01    0.326E-01
DAV:  10    -0.303773365078E+03    0.33177E-03   -0.10720E-02 62556   0.459E-01    0.263E-01
DAV:  11    -0.303773268414E+03    0.96664E-04   -0.45397E-03 59736   0.302E-01    0.196E-01
DAV:  12    -0.303773356357E+03   -0.87942E-04   -0.30025E-03 63396   0.220E-01    0.140E-01
DAV:  13    -0.303773494057E+03   -0.13770E-03   -0.29823E-03 63504   0.234E-01    0.145E-01
DAV:  14    -0.303773419124E+03    0.74934E-04   -0.27059E-03 60120   0.262E-01    0.113E-01
DAV:  15    -0.303773277767E+03    0.14136E-03   -0.12146E-03 54924   0.175E-01    0.462E-02
DAV:  16    -0.303773243215E+03    0.34552E-04   -0.19233E-04 31392   0.876E-02
   4 F= -.30377324E+03 E0= -.30377135E+03  d E =-.338084E+00
       N       E                     dE             d eps       ncg     rms          rms(c)
DAV:   1    -0.303738718960E+03    0.34559E-01   -0.28245E+01 41280   0.178E+01    0.220E+00
DAV:   2    -0.304043373136E+03   -0.30465E+00   -0.32926E+00 70104   0.919E+00    0.397E+00
DAV:   3    -0.303878184419E+03    0.16519E+00   -0.17133E+00 69600   0.595E+00    0.182E+00
DAV:   4    -0.303873326340E+03    0.48581E-02   -0.42501E-01 67416   0.299E+00    0.171E+00
DAV:   5    -0.303849540890E+03    0.23785E-01   -0.24278E-01 70524   0.223E+00    0.875E-01
DAV:   6    -0.303845496071E+03    0.40448E-02   -0.91480E-02 73800   0.126E+00    0.697E-01
DAV:   7    -0.303845861389E+03   -0.36532E-03   -0.68306E-02 73512   0.125E+00    0.748E-01
DAV:   8    -0.303840936769E+03    0.49246E-02   -0.44763E-02 72444   0.102E+00    0.343E-01
DAV:   9    -0.303839883685E+03    0.10531E-02   -0.11587E-02 66864   0.453E-01    0.205E-01
DAV:  10    -0.303839766750E+03    0.11694E-03   -0.47600E-03 62460   0.295E-01    0.172E-01
DAV:  11    -0.303839737996E+03    0.28754E-04   -0.23578E-03 58632   0.221E-01    0.131E-01
DAV:  12    -0.303839740768E+03   -0.27720E-05   -0.15146E-03 58116   0.168E-01    0.879E-02
DAV:  13    -0.303839737592E+03    0.31766E-05   -0.11116E-03 54816   0.138E-01    0.678E-02
DAV:  14    -0.303839727951E+03    0.96401E-05   -0.74941E-04 48996   0.135E-01
   5 F= -.30383973E+03 E0= -.30383858E+03  d E =-.404569E+00
       N       E                     dE             d eps       ncg     rms          rms(c)
DAV:   1    -0.303881978085E+03   -0.42240E-01   -0.64301E+00 41592   0.968E+00    0.185E+00
DAV:   2    -0.303951365351E+03   -0.69387E-01   -0.99353E-01 71244   0.497E+00    0.223E+00
DAV:   3    -0.303936636789E+03    0.14729E-01   -0.74398E-01 70392   0.408E+00    0.198E+00
DAV:   4    -0.303910818239E+03    0.25819E-01   -0.31697E-01 70296   0.257E+00    0.109E+00
DAV:   5    -0.303900055974E+03    0.10762E-01   -0.15743E-01 71856   0.171E+00    0.850E-01
DAV:   6    -0.303894542321E+03    0.55137E-02   -0.84191E-02 70212   0.137E+00    0.521E-01
DAV:   7    -0.303893051295E+03    0.14910E-02   -0.35528E-02 72516   0.820E-01    0.385E-01
DAV:   8    -0.303892070176E+03    0.98112E-03   -0.17354E-02 66072   0.550E-01    0.244E-01
DAV:   9    -0.303891741945E+03    0.32823E-03   -0.44111E-03 60540   0.326E-01    0.179E-01
DAV:  10    -0.303891641121E+03    0.10082E-03   -0.15630E-03 60612   0.167E-01    0.136E-01
DAV:  11    -0.303891749742E+03   -0.10862E-03   -0.94373E-04 52008   0.142E-01    0.121E-01
DAV:  12    -0.303891856207E+03   -0.10647E-03   -0.15904E-03 58236   0.195E-01    0.106E-01
DAV:  13    -0.303891779813E+03    0.76394E-04   -0.11457E-03 58296   0.152E-01    0.447E-02
DAV:  14    -0.303891782559E+03   -0.27459E-05   -0.44714E-04 39828   0.124E-01
   6 F= -.30389178E+03 E0= -.30389067E+03  d E =-.520546E-01
       N       E                     dE             d eps       ncg     rms          rms(c)
DAV:   1    -0.303895390210E+03   -0.36104E-02   -0.36168E+00 41448   0.725E+00    0.138E+00
DAV:   2    -0.303933307682E+03   -0.37917E-01   -0.55582E-01 71412   0.368E+00    0.165E+00
DAV:   3    -0.303926559056E+03    0.67486E-02   -0.42174E-01 70404   0.303E+00    0.152E+00
DAV:   4    -0.303911226432E+03    0.15333E-01   -0.18230E-01 70224   0.193E+00    0.814E-01
DAV:   5    -0.303904985987E+03    0.62404E-02   -0.88715E-02 71964   0.126E+00    0.620E-01
DAV:   6    -0.303902093924E+03    0.28921E-02   -0.46225E-02 70236   0.102E+00    0.394E-01
DAV:   7    -0.303901205510E+03    0.88841E-03   -0.19734E-02 69516   0.615E-01    0.285E-01
DAV:   8    -0.303900697133E+03    0.50838E-03   -0.97461E-03 64380   0.414E-01    0.184E-01
DAV:   9    -0.303900499528E+03    0.19761E-03   -0.25109E-03 60540   0.246E-01    0.131E-01
DAV:  10    -0.303900436150E+03    0.63378E-04   -0.75558E-04 48504   0.122E-01
   7 F= -.30390044E+03 E0= -.30389934E+03  d E =-.607082E-01
       N       E                     dE             d eps       ncg     rms          rms(c)
DAV:   1    -0.303924782487E+03   -0.24283E-01   -0.43651E+00 41304   0.800E+00    0.154E+00
DAV:   2    -0.303952673727E+03   -0.27891E-01   -0.58189E-01 70980   0.380E+00    0.135E+00
DAV:   3    -0.303969770101E+03   -0.17096E-01   -0.46488E-01 67632   0.328E+00    0.191E+00
DAV:   4    -0.303940994490E+03    0.28776E-01   -0.25080E-01 69048   0.229E+00    0.805E-01
DAV:   5    -0.303933721487E+03    0.72730E-02   -0.82543E-02 71340   0.127E+00    0.587E-01
DAV:   6    -0.303931736323E+03    0.19852E-02   -0.49740E-02 72420   0.101E+00    0.439E-01
DAV:   7    -0.303930598518E+03    0.11378E-02   -0.23594E-02 74052   0.669E-01    0.285E-01
DAV:   8    -0.303930019630E+03    0.57889E-03   -0.86088E-03 65604   0.383E-01    0.187E-01
DAV:   9    -0.303929759461E+03    0.26017E-03   -0.30309E-03 65112   0.218E-01    0.123E-01
DAV:  10    -0.303929757042E+03    0.24191E-05   -0.13309E-03 55272   0.165E-01    0.106E-01
DAV:  11    -0.303929773117E+03   -0.16074E-04   -0.63554E-04 45072   0.134E-01
   8 F= -.30392977E+03 E0= -.30392863E+03  d E =-.293370E-01
       N       E                     dE             d eps       ncg     rms          rms(c)
DAV:   1    -0.303931704870E+03   -0.19478E-02   -0.19859E+00 41352   0.539E+00    0.103E+00
DAV:   2    -0.303944553808E+03   -0.12849E-01   -0.26460E-01 70356   0.266E+00    0.936E-01
DAV:   3    -0.303949651123E+03   -0.50973E-02   -0.20250E-01 67752   0.221E+00    0.119E+00
DAV:   4    -0.303938801081E+03    0.10850E-01   -0.10956E-01 69192   0.154E+00    0.571E-01
DAV:   5    -0.303935872967E+03    0.29281E-02   -0.45073E-02 69660   0.983E-01    0.463E-01
DAV:   6    -0.303934383854E+03    0.14891E-02   -0.24194E-02 70428   0.702E-01    0.265E-01
DAV:   7    -0.303934090149E+03    0.29370E-03   -0.88167E-03 67680   0.418E-01    0.201E-01
DAV:   8    -0.303933833365E+03    0.25678E-03   -0.37734E-03 62244   0.277E-01    0.136E-01
DAV:   9    -0.303933730678E+03    0.10269E-03   -0.97626E-04 55848   0.128E-01    0.893E-02
DAV:  10    -0.303933750849E+03   -0.20171E-04   -0.26618E-04 32988   0.808E-02
   9 F= -.30393375E+03 E0= -.30393258E+03  d E =-.333147E-01
       N       E                     dE             d eps       ncg     rms          rms(c)
DAV:   1    -0.303940629554E+03   -0.68989E-02   -0.93297E-01 43656   0.327E+00    0.316E-01
DAV:   2    -0.303948065417E+03   -0.74359E-02   -0.86468E-02 68388   0.145E+00    0.502E-01
DAV:   3    -0.303946096144E+03    0.19693E-02   -0.31275E-02 70428   0.835E-01    0.309E-01
DAV:   4    -0.303945616463E+03    0.47968E-03   -0.98599E-03 63984   0.479E-01    0.217E-01
DAV:   5    -0.303945267304E+03    0.34916E-03   -0.46344E-03 61920   0.313E-01    0.153E-01
DAV:   6    -0.303945182310E+03    0.84994E-04   -0.26508E-03 62616   0.244E-01    0.131E-01
DAV:   7    -0.303945123781E+03    0.58530E-04   -0.21756E-03 57432   0.227E-01    0.102E-01
DAV:   8    -0.303945042004E+03    0.81777E-04   -0.11528E-03 53064   0.162E-01    0.639E-02
DAV:   9    -0.303944985793E+03    0.56212E-04   -0.28311E-04 33264   0.102E-01
  10 F= -.30394499E+03 E0= -.30394388E+03  d E =-.112349E-01
       N       E                     dE             d eps       ncg     rms          rms(c)
DAV:   1    -0.303923385762E+03    0.21656E-01   -0.84117E+00 44292   0.980E+00    0.910E-01
DAV:   2    -0.303993485176E+03   -0.70099E-01   -0.79660E-01 68772   0.444E+00    0.166E+00
DAV:   3    -0.303970542514E+03    0.22943E-01   -0.30594E-01 68112   0.266E+00    0.930E-01
DAV:   4    -0.303965564681E+03    0.49778E-02   -0.83725E-02 70620   0.135E+00    0.617E-01
DAV:   5    -0.303963457506E+03    0.21072E-02   -0.37074E-02 68544   0.903E-01    0.480E-01
DAV:   6    -0.303962094494E+03    0.13630E-02   -0.21721E-02 66192   0.706E-01    0.354E-01
DAV:   7    -0.303961996703E+03    0.97790E-04   -0.19345E-02 71136   0.639E-01    0.326E-01
DAV:   8    -0.303961235020E+03    0.76168E-03   -0.12103E-02 70560   0.478E-01    0.213E-01
DAV:   9    -0.303960695437E+03    0.53958E-03   -0.42552E-03 62532   0.274E-01    0.101E-01
DAV:  10    -0.303960625760E+03    0.69677E-04   -0.10937E-03 55032   0.147E-01    0.678E-02
DAV:  11    -0.303960610173E+03    0.15587E-04   -0.33624E-04 38400   0.107E-01
  11 F= -.30396061E+03 E0= -.30395966E+03  d E =-.268593E-01
       N       E                     dE             d eps       ncg     rms          rms(c)
DAV:   1    -0.303982880087E+03   -0.22254E-01   -0.22693E+00 54804   0.663E+00    0.149E+00
DAV:   2    -0.303997893521E+03   -0.15013E-01   -0.47372E-01 74616   0.311E+00    0.132E+00
DAV:   3    -0.303987408910E+03    0.10485E-01   -0.39443E-01 71100   0.235E+00    0.119E+00
DAV:   4    -0.303978352687E+03    0.90562E-02   -0.17266E-01 68628   0.200E+00    0.894E-01
DAV:   5    -0.303971352128E+03    0.70006E-02   -0.98159E-02 68724   0.144E+00    0.626E-01
DAV:   6    -0.303969350625E+03    0.20015E-02   -0.51159E-02 70272   0.103E+00    0.458E-01
DAV:   7    -0.303967738863E+03    0.16118E-02   -0.20607E-02 68784   0.664E-01    0.272E-01
DAV:   8    -0.303967448510E+03    0.29035E-03   -0.10628E-02 63288   0.456E-01    0.209E-01
DAV:   9    -0.303967164796E+03    0.28371E-03   -0.28066E-03 60252   0.250E-01    0.121E-01
DAV:  10    -0.303967097817E+03    0.66980E-04   -0.37852E-04 37164   0.909E-02
  12 F= -.30396710E+03 E0= -.30396625E+03  d E =-.648764E-02
       N       E                     dE             d eps       ncg     rms          rms(c)
DAV:   1    -0.303967561569E+03   -0.39677E-03   -0.23940E-02 54960   0.676E-01    0.214E-01
DAV:   2    -0.303967806247E+03   -0.24468E-03   -0.70327E-03 75984   0.333E-01    0.162E-01
DAV:   3    -0.303967630034E+03    0.17621E-03   -0.55885E-03 63504   0.251E-01    0.138E-01
DAV:   4    -0.303967628280E+03    0.17541E-05   -0.27369E-03 63384   0.237E-01    0.146E-01
DAV:   5    -0.303967468810E+03    0.15947E-03   -0.20616E-03 60180   0.219E-01    0.936E-02
DAV:   6    -0.303967423017E+03    0.45794E-04   -0.10093E-03 50676   0.150E-01    0.696E-02
DAV:   7    -0.303967366029E+03    0.56988E-04   -0.37929E-04 36540   0.118E-01
  13 F= -.30396737E+03 E0= -.30396652E+03  d E =-.675586E-02
       N       E                     dE             d eps       ncg     rms          rms(c)
DAV:   1    -0.303967340843E+03    0.82174E-04   -0.94067E-01 41940   0.321E+00    0.263E-01
DAV:   2    -0.303975672378E+03   -0.83315E-02   -0.81365E-02 67164   0.153E+00    0.522E-01
DAV:   3    -0.303973398781E+03    0.22736E-02   -0.24318E-02 68220   0.845E-01    0.217E-01
DAV:   4    -0.303973194978E+03    0.20380E-03   -0.48684E-03 65016   0.341E-01    0.170E-01
DAV:   5    -0.303972926045E+03    0.26893E-03   -0.25127E-03 60684   0.234E-01    0.117E-01
DAV:   6    -0.303972918292E+03    0.77527E-05   -0.16478E-03 54984   0.192E-01    0.115E-01
DAV:   7    -0.303972859329E+03    0.58963E-04   -0.14693E-03 57420   0.181E-01    0.854E-02
DAV:   8    -0.303972790382E+03    0.68948E-04   -0.71341E-04 48912   0.139E-01
  14 F= -.30397279E+03 E0= -.30397198E+03  d E =-.542435E-02
       N       E                     dE             d eps       ncg     rms          rms(c)
DAV:   1    -0.303933465399E+03    0.39394E-01   -0.84972E+00 42912   0.961E+00    0.775E-01
DAV:   2    -0.304002032007E+03   -0.68567E-01   -0.67589E-01 67020   0.427E+00    0.148E+00
DAV:   3    -0.303984541873E+03    0.17490E-01   -0.20973E-01 68988   0.249E+00    0.675E-01
DAV:   4    -0.303981776924E+03    0.27649E-02   -0.40541E-02 72276   0.979E-01    0.458E-01
DAV:   5    -0.303980203743E+03    0.15732E-02   -0.20637E-02 69060   0.647E-01    0.362E-01
DAV:   6    -0.303979870936E+03    0.33281E-03   -0.14704E-02 65124   0.561E-01    0.333E-01
DAV:   7    -0.303979459696E+03    0.41124E-03   -0.12627E-02 69096   0.476E-01    0.250E-01
DAV:   8    -0.303978924983E+03    0.53471E-03   -0.70437E-03 67644   0.381E-01    0.165E-01
DAV:   9    -0.303978584224E+03    0.34076E-03   -0.26862E-03 65592   0.235E-01    0.720E-02
DAV:  10    -0.303978560539E+03    0.23685E-04   -0.89530E-04 52200   0.123E-01
  15 F= -.30397856E+03 E0= -.30397798E+03  d E =-.111945E-01
       N       E                     dE             d eps       ncg     rms          rms(c)
DAV:   1    -0.303977222608E+03    0.13616E-02   -0.23080E+00 41328   0.589E+00    0.108E+00
DAV:   2    -0.303994362818E+03   -0.17140E-01   -0.32661E-01 70104   0.279E+00    0.910E-01
DAV:   3    -0.303997776969E+03   -0.34142E-02   -0.20706E-01 70320   0.220E+00    0.115E+00
DAV:   4    -0.303987375593E+03    0.10401E-01   -0.10817E-01 70404   0.161E+00    0.569E-01
DAV:   5    -0.303983461721E+03    0.39139E-02   -0.35987E-02 69936   0.794E-01    0.385E-01
DAV:   6    -0.303983044632E+03    0.41709E-03   -0.25062E-02 68292   0.705E-01    0.346E-01
DAV:   7    -0.303982123213E+03    0.92142E-03   -0.10857E-02 64548   0.465E-01    0.164E-01
DAV:   8    -0.303982067645E+03    0.55568E-04   -0.37378E-03 64536   0.231E-01    0.138E-01
DAV:   9    -0.303981946242E+03    0.12140E-03   -0.13323E-03 58752   0.157E-01    0.963E-02
DAV:  10    -0.303981958788E+03   -0.12546E-04   -0.67082E-04 47292   0.127E-01
  16 F= -.30398196E+03 E0= -.30398141E+03  d E =-.339825E-02
       N       E                     dE             d eps       ncg     rms          rms(c)
DAV:   1    -0.303982013979E+03   -0.67737E-04   -0.97189E-03 52368   0.396E-01    0.860E-02
DAV:   2    -0.303982232879E+03   -0.21890E-03   -0.24453E-03 71076   0.235E-01    0.113E-01
DAV:   3    -0.303982117077E+03    0.11580E-03   -0.16957E-03 58896   0.189E-01    0.752E-02
DAV:   4    -0.303982087683E+03    0.29394E-04   -0.41587E-04 37884   0.119E-01
  17 F= -.30398209E+03 E0= -.30398154E+03  d E =-.352714E-02
       N       E                     dE             d eps       ncg     rms          rms(c)
DAV:   1    -0.303977210006E+03    0.49071E-02   -0.13054E+00 41400   0.402E+00    0.408E-01
DAV:   2    -0.303987791884E+03   -0.10582E-01   -0.12604E-01 66420   0.172E+00    0.414E-01
DAV:   3    -0.303988590307E+03   -0.79842E-03   -0.32503E-02 69240   0.964E-01    0.459E-01
DAV:   4    -0.303986557614E+03    0.20327E-02   -0.11691E-02 66216   0.560E-01    0.194E-01
DAV:   5    -0.303986237912E+03    0.31970E-03   -0.39870E-03 66372   0.244E-01    0.152E-01
DAV:   6    -0.303986385032E+03   -0.14712E-03   -0.42605E-03 63384   0.289E-01    0.192E-01
DAV:   7    -0.303986081365E+03    0.30367E-03   -0.36464E-03 61836   0.274E-01    0.964E-02
DAV:   8    -0.303985989951E+03    0.91414E-04   -0.11779E-03 55668   0.152E-01    0.574E-02
DAV:   9    -0.303985950068E+03    0.39883E-04   -0.20943E-04 30096   0.100E-01
  18 F= -.30398595E+03 E0= -.30398536E+03  d E =-.386239E-02
       N       E                     dE             d eps       ncg     rms          rms(c)
DAV:   1    -0.303981136739E+03    0.48532E-02   -0.85003E-01 41340   0.324E+00    0.320E-01
DAV:   2    -0.303988644879E+03   -0.75081E-02   -0.84286E-02 66900   0.145E+00    0.410E-01
DAV:   3    -0.303988237377E+03    0.40750E-03   -0.22595E-02 69144   0.802E-01    0.326E-01
DAV:   4    -0.303987261407E+03    0.97597E-03   -0.62653E-03 64764   0.400E-01    0.154E-01
DAV:   5    -0.303987053919E+03    0.20749E-03   -0.24696E-03 63600   0.200E-01    0.120E-01
DAV:   6    -0.303987154319E+03   -0.10040E-03   -0.26937E-03 59496   0.233E-01    0.154E-01
DAV:   7    -0.303986967316E+03    0.18700E-03   -0.23242E-03 58176   0.227E-01    0.799E-02
DAV:   8    -0.303986901197E+03    0.66119E-04   -0.70322E-04 48000   0.132E-01
  19 F= -.30398690E+03 E0= -.30398631E+03  d E =-.481351E-02
       N       E                     dE             d eps       ncg     rms          rms(c)
DAV:   1    -0.303986715883E+03    0.25143E-03   -0.24524E-01 42228   0.174E+00    0.149E-01
DAV:   2    -0.303988637876E+03   -0.19220E-02   -0.21569E-02 66612   0.736E-01    0.185E-01
DAV:   3    -0.303988482593E+03    0.15528E-03   -0.51859E-03 69768   0.362E-01    0.132E-01
DAV:   4    -0.303988345631E+03    0.13696E-03   -0.15100E-03 56136   0.204E-01    0.822E-02
DAV:   5    -0.303988287800E+03    0.57831E-04   -0.56058E-04 44892   0.124E-01
  20 F= -.30398829E+03 E0= -.30398767E+03  d E =-.138660E-02
       N       E                     dE             d eps       ncg     rms          rms(c)
DAV:   1    -0.303974328847E+03    0.14017E-01   -0.21920E+00 41376   0.521E+00    0.474E-01
DAV:   2    -0.303992531550E+03   -0.18203E-01   -0.20472E-01 66408   0.235E+00    0.565E-01
DAV:   3    -0.303992441432E+03    0.90118E-04   -0.53883E-02 67344   0.120E+00    0.496E-01
DAV:   4    -0.303990248525E+03    0.21929E-02   -0.16812E-02 64236   0.661E-01    0.254E-01
DAV:   5    -0.303989999035E+03    0.24949E-03   -0.59845E-03 62880   0.368E-01    0.223E-01
DAV:   6    -0.303990015336E+03   -0.16302E-04   -0.47661E-03 65616   0.335E-01    0.212E-01
DAV:   7    -0.303989673239E+03    0.34210E-03   -0.41468E-03 64572   0.299E-01    0.117E-01
DAV:   8    -0.303989544349E+03    0.12889E-03   -0.18139E-03 60444   0.186E-01    0.743E-02
DAV:   9    -0.303989478514E+03    0.65834E-04   -0.56939E-04 43092   0.112E-01
  21 F= -.30398948E+03 E0= -.30398873E+03  d E =-.257732E-02
       N       E                     dE             d eps       ncg     rms          rms(c)
DAV:   1    -0.303989746816E+03   -0.20247E-03   -0.11787E-01 41388   0.128E+00    0.209E-01
DAV:   2    -0.303990764964E+03   -0.10181E-02   -0.16230E-02 71244   0.598E-01    0.195E-01
DAV:   3    -0.303990537509E+03    0.22745E-03   -0.73199E-03 72780   0.369E-01    0.172E-01
DAV:   4    -0.303990359008E+03    0.17850E-03   -0.35911E-03 63096   0.269E-01    0.129E-01
DAV:   5    -0.303990171736E+03    0.18727E-03   -0.17918E-03 59388   0.184E-01    0.716E-02
DAV:   6    -0.303990155318E+03    0.16418E-04   -0.85228E-04 49932   0.134E-01
  22 F= -.30399016E+03 E0= -.30398937E+03  d E =-.676804E-03
       N       E                     dE             d eps       ncg     rms          rms(c)
DAV:   1    -0.303986256094E+03    0.39156E-02   -0.10458E+00 41280   0.382E+00    0.607E-01
DAV:   2    -0.303994905231E+03   -0.86491E-02   -0.13245E-01 69396   0.168E+00    0.544E-01
DAV:   3    -0.303993439991E+03    0.14652E-02   -0.57135E-02 72912   0.106E+00    0.511E-01
DAV:   4    -0.303992199322E+03    0.12407E-02   -0.31938E-02 66672   0.841E-01    0.413E-01
DAV:   5    -0.303990409774E+03    0.17895E-02   -0.17310E-02 69828   0.557E-01    0.219E-01
DAV:   6    -0.303990153214E+03    0.25656E-03   -0.71108E-03 69120   0.370E-01    0.178E-01
DAV:   7    -0.303990013974E+03    0.13924E-03   -0.42018E-03 60360   0.307E-01    0.134E-01
DAV:   8    -0.303989886128E+03    0.12785E-03   -0.19292E-03 59676   0.204E-01    0.741E-02
DAV:   9    -0.303989839649E+03    0.46479E-04   -0.33730E-04 36180   0.101E-01
  23 F= -.30398984E+03 E0= -.30398899E+03  d E =-.361134E-03
