<?xml version="1.0" encoding="ISO-8859-1"?>
<modeling>
 <generator>
  <i name="program" type="string">vasp </i>
  <i name="version" type="string">5.4.4.18Apr17-6-g9f103f2a35  </i>
  <i name="subversion" type="string">(build Aug 09 2018 16:20:53) complex            parallel </i>
  <i name="platform" type="string">LinuxIFC </i>
  <i name="date" type="string">2020 04 29 </i>
  <i name="time" type="string">20:07:27 </i>
 </generator>
 <incar>
  <i type="string" name="SYSTEM"> Nb - Mo - Ta - Ti - V SQS</i>
  <i type="string" name="PREC">normal</i>
  <i type="int" name="ICHARG">     0</i>
  <i type="int" name="IBRION">     2</i>
  <i type="int" name="NSW">    50</i>
  <i type="int" name="ISIF">     3</i>
  <i name="ENCUT">    600.00000000</i>
  <i type="string" name="LREAL"> Auto</i>
  <i type="int" name="ISMEAR">     1</i>
  <i name="SIGMA">      0.20000000</i>
  <v type="int" name="KPOINT_BSE">    -1     0     0     0</v>
  <i type="string" name="GGA"> PS</i>
 </incar>
 <structure name="primitive_cell" >
  <crystal>
   <varray name="basis" >
    <v>      -3.16000000      -3.16000000      -3.16000000 </v>
    <v>       1.58000000       1.58000000      -7.90000000 </v>
    <v>       7.90000000      -7.90000000      -1.58000000 </v>
   </varray>
   <i name="volume">    473.31744000 </i>
   <varray name="rec_basis" >
    <v>      -0.13713080      -0.12658228      -0.05274262 </v>
    <v>       0.04219409       0.06329114      -0.10548523 </v>
    <v>       0.06329114      -0.06329114       0.00000000 </v>
   </varray>
  </crystal>
  <varray name="positions" >
   <v>      -0.03333333      -0.06666667       0.40000000 </v>
   <v>       0.30000000      -0.40000000       0.40000000 </v>
   <v>      -0.10000000      -0.20000000       0.20000000 </v>
   <v>       0.06666667       0.13333333       0.20000000 </v>
   <v>       0.46666667      -0.06666667       0.40000000 </v>
   <v>      -0.13333333      -0.26666667      -0.40000000 </v>
   <v>       0.03333333       0.06666667      -0.40000000 </v>
   <v>      -0.36666667       0.26666667       0.40000000 </v>
   <v>      -0.20000000      -0.40000000       0.40000000 </v>
   <v>      -0.43333333       0.13333333       0.20000000 </v>
   <v>       0.36666667      -0.26666667      -0.40000000 </v>
   <v>       0.13333333       0.26666667       0.40000000 </v>
   <v>      -0.46666667       0.06666667      -0.40000000 </v>
   <v>       0.23333333       0.46666667       0.20000000 </v>
   <v>       0.20000000       0.40000000      -0.40000000 </v>
   <v>       0.00000000       0.00000000       0.00000000 </v>
   <v>      -0.06666667      -0.13333333      -0.20000000 </v>
   <v>      -0.30000000       0.40000000      -0.40000000 </v>
   <v>      -0.26666667       0.46666667       0.20000000 </v>
   <v>       0.33333333      -0.33333333       0.00000000 </v>
   <v>       0.43333333      -0.13333333      -0.20000000 </v>
   <v>      -0.50000000       0.00000000       0.00000000 </v>
   <v>       0.26666667      -0.46666667      -0.20000000 </v>
   <v>      -0.33333333       0.33333333       0.00000000 </v>
   <v>      -0.40000000       0.20000000      -0.20000000 </v>
   <v>      -0.16666667      -0.33333333       0.00000000 </v>
   <v>      -0.23333333      -0.46666667      -0.20000000 </v>
   <v>       0.16666667       0.33333333       0.00000000 </v>
   <v>       0.10000000       0.20000000      -0.20000000 </v>
  </varray>
 </structure>
 <varray name="primitive_index" >
  <v type="int" >        1 </v>
  <v type="int" >       17 </v>
  <v type="int" >        7 </v>
  <v type="int" >       23 </v>
  <v type="int" >       19 </v>
  <v type="int" >       18 </v>
  <v type="int" >        6 </v>
  <v type="int" >        2 </v>
  <v type="int" >        8 </v>
  <v type="int" >       15 </v>
  <v type="int" >       11 </v>
  <v type="int" >       12 </v>
  <v type="int" >       27 </v>
  <v type="int" >       29 </v>
  <v type="int" >       22 </v>
  <v type="int" >        4 </v>
  <v type="int" >       14 </v>
  <v type="int" >       25 </v>
  <v type="int" >        9 </v>
  <v type="int" >       28 </v>
  <v type="int" >       16 </v>
  <v type="int" >        3 </v>
  <v type="int" >       21 </v>
  <v type="int" >       10 </v>
  <v type="int" >       26 </v>
  <v type="int" >       13 </v>
  <v type="int" >       24 </v>
  <v type="int" >       20 </v>
  <v type="int" >        5 </v>
 </varray>
 <kpoints>
  <generation param="Gamma">
   <v type="int" name="divisions">       7        7        7 </v>
   <v name="usershift">      0.00000000       0.00000000       0.00000000 </v>
   <v name="genvec1">      0.14285714       0.00000000       0.00000000 </v>
   <v name="genvec2">     -0.00000000       0.14285714       0.00000000 </v>
   <v name="genvec3">      0.00000000       0.00000000       0.14285714 </v>
   <v name="shift">      0.00000000       0.00000000       0.00000000 </v>
  </generation>
  <varray name="kpointlist" >
   <v>       0.00000000       0.00000000       0.00000000 </v>
   <v>       0.14285714       0.00000000      -0.00000000 </v>
   <v>       0.28571429       0.00000000       0.00000000 </v>
   <v>       0.42857143       0.00000000      -0.00000000 </v>
   <v>      -0.00000000       0.14285714       0.00000000 </v>
   <v>       0.14285714       0.14285714      -0.00000000 </v>
   <v>       0.28571429       0.14285714       0.00000000 </v>
   <v>       0.42857143       0.14285714      -0.00000000 </v>
   <v>      -0.42857143       0.14285714       0.00000000 </v>
   <v>      -0.28571429       0.14285714       0.00000000 </v>
   <v>      -0.14285714       0.14285714       0.00000000 </v>
   <v>       0.00000000       0.28571429      -0.00000000 </v>
   <v>       0.14285714       0.28571429      -0.00000000 </v>
   <v>       0.28571429       0.28571429      -0.00000000 </v>
   <v>       0.42857143       0.28571429      -0.00000000 </v>
   <v>      -0.42857143       0.28571429      -0.00000000 </v>
   <v>      -0.28571429       0.28571429      -0.00000000 </v>
   <v>      -0.14285714       0.28571429      -0.00000000 </v>
   <v>      -0.00000000       0.42857143      -0.00000000 </v>
   <v>       0.14285714       0.42857143       0.00000000 </v>
   <v>       0.28571429       0.42857143       0.00000000 </v>
   <v>       0.42857143       0.42857143      -0.00000000 </v>
   <v>      -0.42857143       0.42857143       0.00000000 </v>
   <v>      -0.28571429       0.42857143      -0.00000000 </v>
   <v>      -0.14285714       0.42857143      -0.00000000 </v>
   <v>       0.00000000       0.00000000       0.14285714 </v>
   <v>       0.14285714       0.00000000       0.14285714 </v>
   <v>       0.28571429       0.00000000       0.14285714 </v>
   <v>       0.42857143       0.00000000       0.14285714 </v>
   <v>      -0.42857143       0.00000000       0.14285714 </v>
   <v>      -0.28571429       0.00000000       0.14285714 </v>
   <v>      -0.14285714      -0.00000000       0.14285714 </v>
   <v>      -0.00000000       0.14285714       0.14285714 </v>
   <v>       0.14285714       0.14285714       0.14285714 </v>
   <v>       0.28571429       0.14285714       0.14285714 </v>
   <v>       0.42857143       0.14285714       0.14285714 </v>
   <v>      -0.42857143       0.14285714       0.14285714 </v>
   <v>      -0.28571429       0.14285714       0.14285714 </v>
   <v>      -0.14285714       0.14285714       0.14285714 </v>
   <v>      -0.00000000       0.28571429       0.14285714 </v>
   <v>       0.14285714       0.28571429       0.14285714 </v>
   <v>       0.28571429       0.28571429       0.14285714 </v>
   <v>       0.42857143       0.28571429       0.14285714 </v>
   <v>      -0.42857143       0.28571429       0.14285714 </v>
   <v>      -0.28571429       0.28571429       0.14285714 </v>
   <v>      -0.14285714       0.28571429       0.14285714 </v>
   <v>       0.00000000       0.42857143       0.14285714 </v>
   <v>       0.14285714       0.42857143       0.14285714 </v>
   <v>       0.28571429       0.42857143       0.14285714 </v>
   <v>       0.42857143       0.42857143       0.14285714 </v>
   <v>      -0.42857143       0.42857143       0.14285714 </v>
   <v>      -0.28571429       0.42857143       0.14285714 </v>
   <v>      -0.14285714       0.42857143       0.14285714 </v>
   <v>       0.00000000      -0.42857143       0.14285714 </v>
   <v>       0.14285714      -0.42857143       0.14285714 </v>
   <v>       0.28571429      -0.42857143       0.14285714 </v>
   <v>       0.42857143      -0.42857143       0.14285714 </v>
   <v>      -0.42857143      -0.42857143       0.14285714 </v>
   <v>      -0.28571429      -0.42857143       0.14285714 </v>
   <v>      -0.14285714      -0.42857143       0.14285714 </v>
   <v>       0.00000000      -0.28571429       0.14285714 </v>
   <v>       0.14285714      -0.28571429       0.14285714 </v>
   <v>       0.28571429      -0.28571429       0.14285714 </v>
   <v>       0.42857143      -0.28571429       0.14285714 </v>
   <v>      -0.42857143      -0.28571429       0.14285714 </v>
   <v>      -0.28571429      -0.28571429       0.14285714 </v>
   <v>      -0.14285714      -0.28571429       0.14285714 </v>
   <v>       0.00000000      -0.14285714       0.14285714 </v>
   <v>       0.14285714      -0.14285714       0.14285714 </v>
   <v>       0.28571429      -0.14285714       0.14285714 </v>
   <v>       0.42857143      -0.14285714       0.14285714 </v>
   <v>      -0.42857143      -0.14285714       0.14285714 </v>
   <v>      -0.28571429      -0.14285714       0.14285714 </v>
   <v>      -0.14285714      -0.14285714       0.14285714 </v>
   <v>       0.00000000       0.00000000       0.28571429 </v>
   <v>       0.14285714       0.00000000       0.28571429 </v>
   <v>       0.28571429       0.00000000       0.28571429 </v>
   <v>       0.42857143       0.00000000       0.28571429 </v>
   <v>      -0.42857143      -0.00000000       0.28571429 </v>
   <v>      -0.28571429      -0.00000000       0.28571429 </v>
   <v>      -0.14285714      -0.00000000       0.28571429 </v>
   <v>      -0.00000000       0.14285714       0.28571429 </v>
   <v>       0.14285714       0.14285714       0.28571429 </v>
   <v>       0.28571429       0.14285714       0.28571429 </v>
   <v>       0.42857143       0.14285714       0.28571429 </v>
   <v>      -0.42857143       0.14285714       0.28571429 </v>
   <v>      -0.28571429       0.14285714       0.28571429 </v>
   <v>      -0.14285714       0.14285714       0.28571429 </v>
   <v>      -0.00000000       0.28571429       0.28571429 </v>
   <v>       0.14285714       0.28571429       0.28571429 </v>
   <v>       0.28571429       0.28571429       0.28571429 </v>
   <v>       0.42857143       0.28571429       0.28571429 </v>
   <v>      -0.42857143       0.28571429       0.28571429 </v>
   <v>      -0.28571429       0.28571429       0.28571429 </v>
   <v>      -0.14285714       0.28571429       0.28571429 </v>
   <v>       0.00000000       0.42857143       0.28571429 </v>
   <v>       0.14285714       0.42857143       0.28571429 </v>
   <v>       0.28571429       0.42857143       0.28571429 </v>
   <v>       0.42857143       0.42857143       0.28571429 </v>
   <v>      -0.42857143       0.42857143       0.28571429 </v>
   <v>      -0.28571429       0.42857143       0.28571429 </v>
   <v>      -0.14285714       0.42857143       0.28571429 </v>
   <v>      -0.00000000      -0.42857143       0.28571429 </v>
   <v>       0.14285714      -0.42857143       0.28571429 </v>
   <v>       0.28571429      -0.42857143       0.28571429 </v>
   <v>       0.42857143      -0.42857143       0.28571429 </v>
   <v>      -0.42857143      -0.42857143       0.28571429 </v>
   <v>      -0.28571429      -0.42857143       0.28571429 </v>
   <v>      -0.14285714      -0.42857143       0.28571429 </v>
   <v>       0.00000000      -0.28571429       0.28571429 </v>
   <v>       0.14285714      -0.28571429       0.28571429 </v>
   <v>       0.28571429      -0.28571429       0.28571429 </v>
   <v>       0.42857143      -0.28571429       0.28571429 </v>
   <v>      -0.42857143      -0.28571429       0.28571429 </v>
   <v>      -0.28571429      -0.28571429       0.28571429 </v>
   <v>      -0.14285714      -0.28571429       0.28571429 </v>
   <v>       0.00000000      -0.14285714       0.28571429 </v>
   <v>       0.14285714      -0.14285714       0.28571429 </v>
   <v>       0.28571429      -0.14285714       0.28571429 </v>
   <v>       0.42857143      -0.14285714       0.28571429 </v>
   <v>      -0.42857143      -0.14285714       0.28571429 </v>
   <v>      -0.28571429      -0.14285714       0.28571429 </v>
   <v>      -0.14285714      -0.14285714       0.28571429 </v>
   <v>       0.00000000       0.00000000       0.42857143 </v>
   <v>       0.14285714       0.00000000       0.42857143 </v>
   <v>       0.28571429       0.00000000       0.42857143 </v>
   <v>       0.42857143      -0.00000000       0.42857143 </v>
   <v>      -0.42857143      -0.00000000       0.42857143 </v>
   <v>      -0.28571429       0.00000000       0.42857143 </v>
   <v>      -0.14285714      -0.00000000       0.42857143 </v>
   <v>      -0.00000000       0.14285714       0.42857143 </v>
   <v>       0.14285714       0.14285714       0.42857143 </v>
   <v>       0.28571429       0.14285714       0.42857143 </v>
   <v>       0.42857143       0.14285714       0.42857143 </v>
   <v>      -0.42857143       0.14285714       0.42857143 </v>
   <v>      -0.28571429       0.14285714       0.42857143 </v>
   <v>      -0.14285714       0.14285714       0.42857143 </v>
   <v>       0.00000000       0.28571429       0.42857143 </v>
   <v>       0.14285714       0.28571429       0.42857143 </v>
   <v>       0.28571429       0.28571429       0.42857143 </v>
   <v>       0.42857143       0.28571429       0.42857143 </v>
   <v>      -0.42857143       0.28571429       0.42857143 </v>
   <v>      -0.28571429       0.28571429       0.42857143 </v>
   <v>      -0.14285714       0.28571429       0.42857143 </v>
   <v>       0.00000000       0.42857143       0.42857143 </v>
   <v>       0.14285714       0.42857143       0.42857143 </v>
   <v>       0.28571429       0.42857143       0.42857143 </v>
   <v>       0.42857143       0.42857143       0.42857143 </v>
   <v>      -0.42857143       0.42857143       0.42857143 </v>
   <v>      -0.28571429       0.42857143       0.42857143 </v>
   <v>      -0.14285714       0.42857143       0.42857143 </v>
   <v>       0.00000000      -0.42857143       0.42857143 </v>
   <v>       0.14285714      -0.42857143       0.42857143 </v>
   <v>       0.28571429      -0.42857143       0.42857143 </v>
   <v>       0.42857143      -0.42857143       0.42857143 </v>
   <v>      -0.42857143      -0.42857143       0.42857143 </v>
   <v>      -0.28571429      -0.42857143       0.42857143 </v>
   <v>      -0.14285714      -0.42857143       0.42857143 </v>
   <v>      -0.00000000      -0.28571429       0.42857143 </v>
   <v>       0.14285714      -0.28571429       0.42857143 </v>
   <v>       0.28571429      -0.28571429       0.42857143 </v>
   <v>       0.42857143      -0.28571429       0.42857143 </v>
   <v>      -0.42857143      -0.28571429       0.42857143 </v>
   <v>      -0.28571429      -0.28571429       0.42857143 </v>
   <v>      -0.14285714      -0.28571429       0.42857143 </v>
   <v>       0.00000000      -0.14285714       0.42857143 </v>
   <v>       0.14285714      -0.14285714       0.42857143 </v>
   <v>       0.28571429      -0.14285714       0.42857143 </v>
   <v>       0.42857143      -0.14285714       0.42857143 </v>
   <v>      -0.42857143      -0.14285714       0.42857143 </v>
   <v>      -0.28571429      -0.14285714       0.42857143 </v>
   <v>      -0.14285714      -0.14285714       0.42857143 </v>
  </varray>
  <varray name="weights" >
   <v>       0.00291545 </v>
   <v>       0.00583090 </v>
   <v>       0.00583090 </v>
   <v>       0.00583090 </v>
   <v>       0.00583090 </v>
   <v>       0.00583090 </v>
   <v>       0.00583090 </v>
   <v>       0.00583090 </v>
   <v>       0.00583090 </v>
   <v>       0.00583090 </v>
   <v>       0.00583090 </v>
   <v>       0.00583090 </v>
   <v>       0.00583090 </v>
   <v>       0.00583090 </v>
   <v>       0.00583090 </v>
   <v>       0.00583090 </v>
   <v>       0.00583090 </v>
   <v>       0.00583090 </v>
   <v>       0.00583090 </v>
   <v>       0.00583090 </v>
   <v>       0.00583090 </v>
   <v>       0.00583090 </v>
   <v>       0.00583090 </v>
   <v>       0.00583090 </v>
   <v>       0.00583090 </v>
   <v>       0.00583090 </v>
   <v>       0.00583090 </v>
   <v>       0.00583090 </v>
   <v>       0.00583090 </v>
   <v>       0.00583090 </v>
   <v>       0.00583090 </v>
   <v>       0.00583090 </v>
   <v>       0.00583090 </v>
   <v>       0.00583090 </v>
   <v>       0.00583090 </v>
   <v>       0.00583090 </v>
   <v>       0.00583090 </v>
   <v>       0.00583090 </v>
   <v>       0.00583090 </v>
   <v>       0.00583090 </v>
   <v>       0.00583090 </v>
   <v>       0.00583090 </v>
   <v>       0.00583090 </v>
   <v>       0.00583090 </v>
   <v>       0.00583090 </v>
   <v>       0.00583090 </v>
   <v>       0.00583090 </v>
   <v>       0.00583090 </v>
   <v>       0.00583090 </v>
   <v>       0.00583090 </v>
   <v>       0.00583090 </v>
   <v>       0.00583090 </v>
   <v>       0.00583090 </v>
   <v>       0.00583090 </v>
   <v>       0.00583090 </v>
   <v>       0.00583090 </v>
   <v>       0.00583090 </v>
   <v>       0.00583090 </v>
   <v>       0.00583090 </v>
   <v>       0.00583090 </v>
   <v>       0.00583090 </v>
   <v>       0.00583090 </v>
   <v>       0.00583090 </v>
   <v>       0.00583090 </v>
   <v>       0.00583090 </v>
   <v>       0.00583090 </v>
   <v>       0.00583090 </v>
   <v>       0.00583090 </v>
   <v>       0.00583090 </v>
   <v>       0.00583090 </v>
   <v>       0.00583090 </v>
   <v>       0.00583090 </v>
   <v>       0.00583090 </v>
   <v>       0.00583090 </v>
   <v>       0.00583090 </v>
   <v>       0.00583090 </v>
   <v>       0.00583090 </v>
   <v>       0.00583090 </v>
   <v>       0.00583090 </v>
   <v>       0.00583090 </v>
   <v>       0.00583090 </v>
   <v>       0.00583090 </v>
   <v>       0.00583090 </v>
   <v>       0.00583090 </v>
   <v>       0.00583090 </v>
   <v>       0.00583090 </v>
   <v>       0.00583090 </v>
   <v>       0.00583090 </v>
   <v>       0.00583090 </v>
   <v>       0.00583090 </v>
   <v>       0.00583090 </v>
   <v>       0.00583090 </v>
   <v>       0.00583090 </v>
   <v>       0.00583090 </v>
   <v>       0.00583090 </v>
   <v>       0.00583090 </v>
   <v>       0.00583090 </v>
   <v>       0.00583090 </v>
   <v>       0.00583090 </v>
   <v>       0.00583090 </v>
   <v>       0.00583090 </v>
   <v>       0.00583090 </v>
   <v>       0.00583090 </v>
   <v>       0.00583090 </v>
   <v>       0.00583090 </v>
   <v>       0.00583090 </v>
   <v>       0.00583090 </v>
   <v>       0.00583090 </v>
   <v>       0.00583090 </v>
   <v>       0.00583090 </v>
   <v>       0.00583090 </v>
   <v>       0.00583090 </v>
   <v>       0.00583090 </v>
   <v>       0.00583090 </v>
   <v>       0.00583090 </v>
   <v>       0.00583090 </v>
   <v>       0.00583090 </v>
   <v>       0.00583090 </v>
   <v>       0.00583090 </v>
   <v>       0.00583090 </v>
   <v>       0.00583090 </v>
   <v>       0.00583090 </v>
   <v>       0.00583090 </v>
   <v>       0.00583090 </v>
   <v>       0.00583090 </v>
   <v>       0.00583090 </v>
   <v>       0.00583090 </v>
   <v>       0.00583090 </v>
   <v>       0.00583090 </v>
   <v>       0.00583090 </v>
   <v>       0.00583090 </v>
   <v>       0.00583090 </v>
   <v>       0.00583090 </v>
   <v>       0.00583090 </v>
   <v>       0.00583090 </v>
   <v>       0.00583090 </v>
   <v>       0.00583090 </v>
   <v>       0.00583090 </v>
   <v>       0.00583090 </v>
   <v>       0.00583090 </v>
   <v>       0.00583090 </v>
   <v>       0.00583090 </v>
   <v>       0.00583090 </v>
   <v>       0.00583090 </v>
   <v>       0.00583090 </v>
   <v>       0.00583090 </v>
   <v>       0.00583090 </v>
   <v>       0.00583090 </v>
   <v>       0.00583090 </v>
   <v>       0.00583090 </v>
   <v>       0.00583090 </v>
   <v>       0.00583090 </v>
   <v>       0.00583090 </v>
   <v>       0.00583090 </v>
   <v>       0.00583090 </v>
   <v>       0.00583090 </v>
   <v>       0.00583090 </v>
   <v>       0.00583090 </v>
   <v>       0.00583090 </v>
   <v>       0.00583090 </v>
   <v>       0.00583090 </v>
   <v>       0.00583090 </v>
   <v>       0.00583090 </v>
   <v>       0.00583090 </v>
   <v>       0.00583090 </v>
   <v>       0.00583090 </v>
   <v>       0.00583090 </v>
   <v>       0.00583090 </v>
   <v>       0.00583090 </v>
   <v>       0.00583090 </v>
   <v>       0.00583090 </v>
   <v>       0.00583090 </v>
  </varray>
 </kpoints>
 <parameters>
  <separator name="general" >
   <i type="string" name="SYSTEM">Nb - Mo - Ta - Ti - V SQS</i>
   <i type="logical" name="LCOMPAT"> F  </i>
  </separator>
  <separator name="electronic" >
   <i type="string" name="PREC">normal</i>
   <i name="ENMAX">    600.00000000</i>
   <i name="ENAUG">    455.65900000</i>
   <i name="EDIFF">      0.00010000</i>
   <i type="int" name="IALGO">    38</i>
   <i type="int" name="IWAVPR">    11</i>
   <i type="int" name="NBANDS">   120</i>
   <i name="NELECT">    193.00000000</i>
   <i type="int" name="TURBO">     0</i>
   <i type="int" name="IRESTART">     0</i>
   <i type="int" name="NREBOOT">     0</i>
   <i type="int" name="NMIN">     0</i>
   <i name="EREF">      0.00000000</i>
   <separator name="electronic smearing" >
    <i type="int" name="ISMEAR">     1</i>
    <i name="SIGMA">      0.20000000</i>
    <i name="KSPACING">      0.50000000</i>
    <i type="logical" name="KGAMMA"> T  </i>
   </separator>
   <separator name="electronic projectors" >
    <i type="logical" name="LREAL"> T  </i>
    <v name="ROPT">     -0.00050000     -0.00050000     -0.00050000     -0.00050000     -0.00050000</v>
    <i type="int" name="LMAXPAW">  -100</i>
    <i type="int" name="LMAXMIX">     2</i>
    <i type="logical" name="NLSPLINE"> F  </i>
   </separator>
   <separator name="electronic startup" >
    <i type="int" name="ISTART">     0</i>
    <i type="int" name="ICHARG">     0</i>
    <i type="int" name="INIWAV">     1</i>
   </separator>
   <separator name="electronic spin" >
    <i type="int" name="ISPIN">     1</i>
    <i type="logical" name="LNONCOLLINEAR"> F  </i>
    <v name="MAGMOM">      1.00000000      1.00000000      1.00000000      1.00000000      1.00000000      1.00000000      1.00000000      1.00000000      1.00000000      1.00000000      1.00000000      1.00000000      1.00000000      1.00000000      1.00000000      1.00000000      1.00000000      1.00000000      1.00000000      1.00000000
      1.00000000      1.00000000      1.00000000      1.00000000      1.00000000      1.00000000      1.00000000      1.00000000      1.00000000</v>
    <i name="NUPDOWN">     -1.00000000</i>
    <i type="logical" name="LSORBIT"> F  </i>
    <v name="SAXIS">      0.00000000      0.00000000      1.00000000</v>
    <i type="logical" name="LSPIRAL"> F  </i>
    <v name="QSPIRAL">      0.00000000      0.00000000      0.00000000</v>
    <i type="logical" name="LZEROZ"> F  </i>
   </separator>
   <separator name="electronic exchange-correlation" >
    <i type="logical" name="LASPH"> F  </i>
    <i type="logical" name="LMETAGGA"> F  </i>
   </separator>
   <separator name="electronic convergence" >
    <i type="int" name="NELM">    60</i>
    <i type="int" name="NELMDL">    -5</i>
    <i type="int" name="NELMIN">     2</i>
    <i name="ENINI">    600.00000000</i>
    <separator name="electronic convergence detail" >
     <i type="logical" name="LDIAG"> T  </i>
     <i type="logical" name="LSUBROT"> F  </i>
     <i name="WEIMIN">      0.00100000</i>
     <i name="EBREAK">      0.00000021</i>
     <i name="DEPER">      0.30000000</i>
     <i type="int" name="NRMM">     4</i>
     <i name="TIME">      0.40000000</i>
    </separator>
   </separator>
   <separator name="electronic mixer" >
    <i name="AMIX">      0.40000000</i>
    <i name="BMIX">      1.00000000</i>
    <i name="AMIN">      0.10000000</i>
    <i name="AMIX_MAG">      1.60000000</i>
    <i name="BMIX_MAG">      1.00000000</i>
    <separator name="electronic mixer details" >
     <i type="int" name="IMIX">     4</i>
     <i type="logical" name="MIXFIRST"> F  </i>
     <i type="int" name="MAXMIX">   -45</i>
     <i name="WC">    100.00000000</i>
     <i type="int" name="INIMIX">     1</i>
     <i type="int" name="MIXPRE">     1</i>
     <i type="int" name="MREMOVE">     5</i>
    </separator>
   </separator>
   <separator name="electronic dipolcorrection" >
    <i type="logical" name="LDIPOL"> F  </i>
    <i type="logical" name="LMONO"> F  </i>
    <i type="int" name="IDIPOL">     0</i>
    <i name="EPSILON">      1.00000000</i>
    <v name="DIPOL">   -100.00000000   -100.00000000   -100.00000000</v>
    <i name="EFIELD">      0.00000000</i>
   </separator>
  </separator>
  <separator name="grids" >
   <i type="int" name="NGX">    36</i>
   <i type="int" name="NGY">    50</i>
   <i type="int" name="NGZ">    70</i>
   <i type="int" name="NGXF">    72</i>
   <i type="int" name="NGYF">   100</i>
   <i type="int" name="NGZF">   140</i>
   <i type="logical" name="ADDGRID"> F  </i>
  </separator>
  <separator name="ionic" >
   <i type="int" name="NSW">    50</i>
   <i type="int" name="IBRION">     2</i>
   <i type="int" name="MDALGO">     0</i>
   <i type="int" name="ISIF">     3</i>
   <i name="PSTRESS">      0.00000000</i>
   <i name="EDIFFG">      0.00100000</i>
   <i type="int" name="NFREE">     1</i>
   <i name="POTIM">      0.50000000</i>
   <i name="SMASS">     -3.00000000</i>
   <i name="SCALEE">      1.00000000</i>
  </separator>
  <separator name="ionic md" >
   <i name="TEBEG">      0.00010000</i>
   <i name="TEEND">      0.00010000</i>
   <i type="int" name="NBLOCK">     1</i>
   <i type="int" name="KBLOCK">    50</i>
   <i type="int" name="NPACO">   256</i>
   <i name="APACO">     16.00000000</i>
  </separator>
  <separator name="symmetry" >
   <i type="int" name="ISYM">     2</i>
   <i name="SYMPREC">      0.00001000</i>
  </separator>
  <separator name="dos" >
   <i type="int" name="LORBIT">     0</i>
   <v name="RWIGS">     -1.00000000     -1.00000000     -1.00000000     -1.00000000     -1.00000000</v>
   <i type="int" name="NEDOS">   301</i>
   <i name="EMIN">     10.00000000</i>
   <i name="EMAX">    -10.00000000</i>
   <i name="EFERMI">      0.00000000</i>
  </separator>
  <separator name="writing" >
   <i type="int" name="NWRITE">     2</i>
   <i type="logical" name="LWAVE"> T  </i>
   <i type="logical" name="LDOWNSAMPLE"> F  </i>
   <i type="logical" name="LCHARG"> T  </i>
   <i type="logical" name="LPARD"> F  </i>
   <i type="logical" name="LVTOT"> F  </i>
   <i type="logical" name="LVHAR"> F  </i>
   <i type="logical" name="LELF"> F  </i>
   <i type="logical" name="LOPTICS"> F  </i>
   <v name="STM">      0.00000000      0.00000000      0.00000000      0.00000000      0.00000000      0.00000000      0.00000000</v>
  </separator>
  <separator name="performance" >
   <i type="int" name="NPAR">    12</i>
   <i type="int" name="NSIM">     4</i>
   <i type="int" name="NBLK">    -1</i>
   <i type="logical" name="LPLANE"> T  </i>
   <i type="logical" name="LSCALAPACK"> T  </i>
   <i type="logical" name="LSCAAWARE"> F  </i>
   <i type="logical" name="LSCALU"> F  </i>
   <i type="logical" name="LASYNC"> F  </i>
   <i type="logical" name="LORBITALREAL"> F  </i>
  </separator>
  <separator name="miscellaneous" >
   <i type="int" name="IDIOT">     3</i>
   <i type="int" name="ISPECIAL">     0</i>
   <i type="logical" name="LMUSIC"> F  </i>
   <v name="POMASS">     92.91000000     95.94000000    180.94800000     47.88000000     50.94100000</v>
   <v name="DARWINR">      0.00000000      0.00000000      0.00000000      0.00000000      0.00000000</v>
   <v name="DARWINV">      1.00000000      1.00000000      1.00000000      1.00000000      1.00000000</v>
   <i type="logical" name="LCORR"> T  </i>
  </separator>
  <i type="logical" name="GGA_COMPAT"> T  </i>
  <i type="logical" name="LBERRY"> F  </i>
  <i type="int" name="ICORELEVEL">     0</i>
  <i type="logical" name="LDAU"> F  </i>
  <i type="int" name="I_CONSTRAINED_M">     0</i>
  <separator name="electronic exchange-correlation" >
   <i type="string" name="GGA">PS</i>
   <i type="int" name="VOSKOWN">     0</i>
   <i type="logical" name="LHFCALC"> F  </i>
   <i type="string" name="PRECFOCK"></i>
   <i type="logical" name="LSYMGRAD"> F  </i>
   <i type="logical" name="LHFONE"> F  </i>
   <i type="logical" name="LRHFCALC"> F  </i>
   <i type="logical" name="LTHOMAS"> F  </i>
   <i type="logical" name="LMODELHF"> F  </i>
   <i name="ENCUT4O">     -1.00000000</i>
   <i type="int" name="EXXOEP">     0</i>
   <i type="int" name="FOURORBIT">     0</i>
   <i name="AEXX">      0.00000000</i>
   <i name="HFALPHA">      0.00000000</i>
   <i name="MCALPHA">      0.00000000</i>
   <i name="ALDAX">      1.00000000</i>
   <i name="AGGAX">      1.00000000</i>
   <i name="ALDAC">      1.00000000</i>
   <i name="AGGAC">      1.00000000</i>
   <i type="int" name="NKREDX">     1</i>
   <i type="int" name="NKREDY">     1</i>
   <i type="int" name="NKREDZ">     1</i>
   <i type="logical" name="SHIFTRED"> F  </i>
   <i type="logical" name="ODDONLY"> F  </i>
   <i type="logical" name="EVENONLY"> F  </i>
   <i type="int" name="LMAXFOCK">     0</i>
   <i type="int" name="NMAXFOCKAE">     0</i>
   <i type="logical" name="LFOCKAEDFT"> F  </i>
   <i name="HFSCREEN">      0.00000000</i>
   <i name="HFSCREENC">      0.00000000</i>
   <i type="int" name="NBANDSGWLOW">     0</i>
  </separator>
  <separator name="vdW DFT" >
   <i type="logical" name="LUSE_VDW"> F  </i>
   <i name="Zab_VDW">     -0.84910000</i>
   <i name="PARAM1">      0.12340000</i>
   <i name="PARAM2">      1.00000000</i>
   <i name="PARAM3">      0.00000000</i>
  </separator>
  <separator name="model GW" >
   <i type="int" name="MODEL_GW">     0</i>
   <i name="MODEL_EPS0">      9.79277462</i>
   <i name="MODEL_ALPHA">      1.00000000</i>
  </separator>
  <separator name="linear response parameters" >
   <i type="logical" name="LEPSILON"> F  </i>
   <i type="logical" name="LRPA"> F  </i>
   <i type="logical" name="LNABLA"> F  </i>
   <i type="logical" name="LVEL"> F  </i>
   <i type="int" name="KINTER">     0</i>
   <i name="CSHIFT">      0.10000000</i>
   <i name="OMEGAMAX">     -1.00000000</i>
   <i name="DEG_THRESHOLD">      0.00200000</i>
   <i name="RTIME">     -0.10000000</i>
   <i name="WPLASMAI">      0.00000000</i>
   <v name="DFIELD">      0.00000000      0.00000000      0.00000000</v>
   <v name="WPLASMA">      0.00000000      0.00000000      0.00000000      0.00000000      0.00000000      0.00000000      0.00000000      0.00000000      0.00000000</v>
  </separator>
  <separator name="orbital magnetization" >
   <i type="logical" name="NUCIND"> F  </i>
   <v name="MAGPOS">      0.00000000      0.00000000      0.00000000</v>
   <i type="logical" name="LNICSALL"> T  </i>
   <i type="logical" name="ORBITALMAG"> F  </i>
   <i type="logical" name="LMAGBLOCH"> F  </i>
   <i type="logical" name="LCHIMAG"> F  </i>
   <i type="logical" name="LGAUGE"> T  </i>
   <i type="int" name="MAGATOM">     0</i>
   <v name="MAGDIPOL">      0.00000000      0.00000000      0.00000000</v>
   <v name="AVECCONST">      0.00000000      0.00000000      0.00000000</v>
  </separator>
  <separator name="response functions" >
   <i type="logical" name="LADDER"> F  </i>
   <i type="logical" name="LRPAFORCE"> F  </i>
   <i type="logical" name="LFXC"> F  </i>
   <i type="logical" name="LHARTREE"> T  </i>
   <i type="int" name="IBSE">     0</i>
   <v type="int" name="KPOINT">    -1     0     0     0</v>
   <i type="logical" name="LTCTE"> F  </i>
   <i type="logical" name="LTETE"> F  </i>
   <i type="logical" name="LTRIPLET"> F  </i>
   <i type="logical" name="LFXCEPS"> F  </i>
   <i type="logical" name="LFXHEG"> F  </i>
   <i type="int" name="NATURALO">     2</i>
   <i type="logical" name="L2ORDER"> F  </i>
   <i type="logical" name="LMP2LT"> F  </i>
   <i type="logical" name="LUSEW"> F  </i>
   <i name="ENCUTGW">     -2.00000000</i>
   <i name="ENCUTGWSOFT">     -2.00000000</i>
   <i name="ENCUTLF">     -1.00000000</i>
   <i type="int" name="LMAXMP2">    -1</i>
   <i name="SCISSOR">      0.00000000</i>
   <i type="int" name="NOMEGA">     0</i>
   <i type="int" name="NOMEGAR">     0</i>
   <i type="int" name="NBANDSGW">    -1</i>
   <i type="int" name="NBANDSO">    -1</i>
   <i type="int" name="NBANDSV">    -1</i>
   <i type="int" name="NELM">     1</i>
   <i type="int" name="NELMHF">     1</i>
   <i type="int" name="DIM">     3</i>
   <i type="int" name="ANTIRES">     0</i>
   <i name="OMEGAMAX">    -30.00000000</i>
   <i name="OMEGAMIN">    -30.00000000</i>
   <i name="OMEGATL">   -200.00000000</i>
   <i type="int" name="OMEGAGRID">   140</i>
   <i name="CSHIFT">     -0.10000000</i>
   <i type="logical" name="SELFENERGY"> F  </i>
   <i type="logical" name="LSPECTRAL"> F  </i>
   <i type="logical" name="LSPECTRALGW"> F  </i>
   <i type="logical" name="LSINGLES"> F  </i>
   <i type="logical" name="LFERMIGW"> F  </i>
   <i type="logical" name="ODDONLYGW"> F  </i>
   <i type="logical" name="EVENONLYGW"> F  </i>
   <i type="int" name="NKREDLFX">     1</i>
   <i type="int" name="NKREDLFY">     1</i>
   <i type="int" name="NKREDLFZ">     1</i>
   <i type="int" name="MAXMEM">  2800</i>
   <i type="int" name="TELESCOPE">     0</i>
   <i type="int" name="TAUPAR">     1</i>
   <i type="int" name="OMEGAPAR">    -1</i>
   <i name="LAMBDA">      1.00000000</i>
  </separator>
  <separator name="External order field" >
   <i name="OFIELD_KAPPA">      0.00000000</i>
   <v name="OFIELD_K">      0.00000000      0.00000000      0.00000000</v>
   <i name="OFIELD_Q6_NEAR">      0.00000000</i>
   <i name="OFIELD_Q6_FAR">      0.00000000</i>
   <i name="OFIELD_A">      0.00000000</i>
  </separator>
  <separator name="solvation model" >
   <i type="logical" name="LSOL"> F  </i>
  </separator>
 </parameters>
 <atominfo>
  <atoms>      29 </atoms>
  <types>       5 </types>
  <array name="atoms" >
   <dimension dim="1">ion</dimension>
   <field type="string">element</field>
   <field type="int">atomtype</field>
   <set>
    <rc><c>Nb</c><c>   1</c></rc>
    <rc><c>Nb</c><c>   1</c></rc>
    <rc><c>Nb</c><c>   1</c></rc>
    <rc><c>Nb</c><c>   1</c></rc>
    <rc><c>Nb</c><c>   1</c></rc>
    <rc><c>Nb</c><c>   1</c></rc>
    <rc><c>Mo</c><c>   2</c></rc>
    <rc><c>Mo</c><c>   2</c></rc>
    <rc><c>Mo</c><c>   2</c></rc>
    <rc><c>Mo</c><c>   2</c></rc>
    <rc><c>Mo</c><c>   2</c></rc>
    <rc><c>Mo</c><c>   2</c></rc>
    <rc><c>Ta</c><c>   3</c></rc>
    <rc><c>Ta</c><c>   3</c></rc>
    <rc><c>Ta</c><c>   3</c></rc>
    <rc><c>Ta</c><c>   3</c></rc>
    <rc><c>Ta</c><c>   3</c></rc>
    <rc><c>Ti</c><c>   4</c></rc>
    <rc><c>Ti</c><c>   4</c></rc>
    <rc><c>Ti</c><c>   4</c></rc>
    <rc><c>Ti</c><c>   4</c></rc>
    <rc><c>Ti</c><c>   4</c></rc>
    <rc><c>Ti</c><c>   4</c></rc>
    <rc><c>V </c><c>   5</c></rc>
    <rc><c>V </c><c>   5</c></rc>
    <rc><c>V </c><c>   5</c></rc>
    <rc><c>V </c><c>   5</c></rc>
    <rc><c>V </c><c>   5</c></rc>
    <rc><c>V </c><c>   5</c></rc>
   </set>
  </array>
  <array name="atomtypes" >
   <dimension dim="1">type</dimension>
   <field type="int">atomspertype</field>
   <field type="string">element</field>
   <field>mass</field>
   <field>valence</field>
   <field type="string">pseudopotential</field>
   <set>
    <rc><c>   6</c><c>Nb</c><c>     92.91000000</c><c>     13.00000000</c><c>  PAW_PBE Nb_sv 25May2007               </c></rc>
    <rc><c>   6</c><c>Mo</c><c>     95.94000000</c><c>      6.00000000</c><c>  PAW_PBE Mo 08Apr2002                  </c></rc>
    <rc><c>   5</c><c>Ta</c><c>    180.94800000</c><c>      5.00000000</c><c>  PAW_PBE Ta 17Jan2003                  </c></rc>
    <rc><c>   6</c><c>Ti</c><c>     47.88000000</c><c>      4.00000000</c><c>  PAW_PBE Ti 08Apr2002                  </c></rc>
    <rc><c>   6</c><c>V </c><c>     50.94100000</c><c>      5.00000000</c><c>  PAW_PBE V 08Apr2002                   </c></rc>
   </set>
  </array>
 </atominfo>
 <structure name="initialpos" >
  <crystal>
   <varray name="basis" >
    <v>      -3.16000000      -3.16000000      -3.16000000 </v>
    <v>       1.58000000       1.58000000      -7.90000000 </v>
    <v>       7.90000000      -7.90000000      -1.58000000 </v>
   </varray>
   <i name="volume">    473.31744000 </i>
   <varray name="rec_basis" >
    <v>      -0.13713080      -0.12658228      -0.05274262 </v>
    <v>       0.04219409       0.06329114      -0.10548523 </v>
    <v>       0.06329114      -0.06329114       0.00000000 </v>
   </varray>
  </crystal>
  <varray name="positions" >
   <v>       0.96666667       0.93333333       0.40000000 </v>
   <v>       0.63333333       0.26666667       0.40000000 </v>
   <v>       0.50000000       0.00000000       0.00000000 </v>
   <v>       0.00000000       0.00000000       0.00000000 </v>
   <v>       0.10000000       0.20000000       0.80000000 </v>
   <v>       0.03333333       0.06666667       0.60000000 </v>
   <v>       0.90000000       0.80000000       0.20000000 </v>
   <v>       0.80000000       0.60000000       0.40000000 </v>
   <v>       0.73333333       0.46666667       0.20000000 </v>
   <v>       0.66666667       0.33333333       0.00000000 </v>
   <v>       0.36666667       0.73333333       0.60000000 </v>
   <v>       0.13333333       0.26666667       0.40000000 </v>
   <v>       0.83333333       0.66666667       0.00000000 </v>
   <v>       0.93333333       0.86666667       0.80000000 </v>
   <v>       0.56666667       0.13333333       0.20000000 </v>
   <v>       0.43333333       0.86666667       0.80000000 </v>
   <v>       0.30000000       0.60000000       0.40000000 </v>
   <v>       0.86666667       0.73333333       0.60000000 </v>
   <v>       0.46666667       0.93333333       0.40000000 </v>
   <v>       0.16666667       0.33333333       0.00000000 </v>
   <v>       0.26666667       0.53333333       0.80000000 </v>
   <v>       0.20000000       0.40000000       0.60000000 </v>
   <v>       0.06666667       0.13333333       0.20000000 </v>
   <v>       0.76666667       0.53333333       0.80000000 </v>
   <v>       0.70000000       0.40000000       0.60000000 </v>
   <v>       0.60000000       0.20000000       0.80000000 </v>
   <v>       0.53333333       0.06666667       0.60000000 </v>
   <v>       0.33333333       0.66666667       0.00000000 </v>
   <v>       0.23333333       0.46666667       0.20000000 </v>
  </varray>
 </structure>
 <calculation>
  <scstep>
   <time name="dav">   43.54   43.60</time>
   <time name="total">   43.67   43.73</time>
   <energy>
    <i name="alphaZ">   1153.76813855 </i>
    <i name="ewald"> -11089.35092532 </i>
    <i name="hartreedc">   -109.70957044 </i>
    <i name="XCdc">   -916.43593134 </i>
    <i name="pawpsdc"> 522640.80177671 </i>
    <i name="pawaedc">-521405.04747132 </i>
    <i name="eentropy">      0.00105032 </i>
    <i name="bandstr">  -7225.61001416 </i>
    <i name="atom">  12875.17371654 </i>
    <i name="e_fr_energy">  -4076.40923047 </i>
    <i name="e_wo_entrp">  -4076.41028080 </i>
    <i name="e_0_energy">  -4076.40958058 </i>
   </energy>
  </scstep>
  <scstep>
   <time name="dav">   48.87   48.93</time>
   <time name="total">   48.88   48.94</time>
   <energy>
    <i name="e_fr_energy">  -9788.13769494 </i>
    <i name="e_wo_entrp">  -9788.13806520 </i>
    <i name="e_0_energy">  -9788.13781836 </i>
   </energy>
  </scstep>
  <scstep>
   <time name="dav">   56.84   56.91</time>
   <time name="total">   56.85   56.92</time>
   <energy>
    <i name="e_fr_energy"> -10709.63817004 </i>
    <i name="e_wo_entrp"> -10709.63614895 </i>
    <i name="e_0_energy"> -10709.63749634 </i>
   </energy>
  </scstep>
  <scstep>
   <time name="dav">   56.68   56.75</time>
   <time name="total">   56.69   56.76</time>
   <energy>
    <i name="e_fr_energy"> -10971.80823329 </i>
    <i name="e_wo_entrp"> -10971.80855427 </i>
    <i name="e_0_energy"> -10971.80834028 </i>
   </energy>
  </scstep>
  <scstep>
   <time name="dav">   56.60   56.67</time>
   <time name="total">   57.22   57.29</time>
   <energy>
    <i name="e_fr_energy"> -11122.99863322 </i>
    <i name="e_wo_entrp"> -11123.00229428 </i>
    <i name="e_0_energy"> -11122.99985358 </i>
   </energy>
  </scstep>
  <scstep>
   <time name="dav">   44.88   44.93</time>
   <time name="total">   45.67   45.73</time>
   <energy>
    <i name="e_fr_energy">   -926.85352025 </i>
    <i name="e_wo_entrp">   -926.85774302 </i>
    <i name="e_0_energy">   -926.85492784 </i>
   </energy>
  </scstep>
  <scstep>
   <time name="dav">   50.23   50.29</time>
   <time name="total">   50.90   50.96</time>
   <energy>
    <i name="e_fr_energy">   -592.92857310 </i>
    <i name="e_wo_entrp">   -592.92609237 </i>
    <i name="e_0_energy">   -592.92774619 </i>
   </energy>
  </scstep>
  <scstep>
   <time name="dav">   51.81   51.87</time>
   <time name="total">   52.50   52.57</time>
   <energy>
    <i name="e_fr_energy">   -577.99390125 </i>
    <i name="e_wo_entrp">   -577.99494847 </i>
    <i name="e_0_energy">   -577.99425032 </i>
   </energy>
  </scstep>
  <scstep>
   <time name="dav">   48.95   49.01</time>
   <time name="total">   49.62   49.68</time>
   <energy>
    <i name="e_fr_energy">   -475.03180278 </i>
    <i name="e_wo_entrp">   -475.03233220 </i>
    <i name="e_0_energy">   -475.03197925 </i>
   </energy>
  </scstep>
  <scstep>
   <time name="dav">   56.74   56.81</time>
   <time name="total">   57.42   57.50</time>
   <energy>
    <i name="e_fr_energy">   -561.56345534 </i>
    <i name="e_wo_entrp">   -561.57088265 </i>
    <i name="e_0_energy">   -561.56593111 </i>
   </energy>
  </scstep>
  <scstep>
   <time name="dav">   52.20   52.26</time>
   <time name="total">   52.87   52.93</time>
   <energy>
    <i name="e_fr_energy">   -691.66932362 </i>
    <i name="e_wo_entrp">   -691.67651302 </i>
    <i name="e_0_energy">   -691.67172009 </i>
   </energy>
  </scstep>
  <scstep>
   <time name="dav">   54.99   55.06</time>
   <time name="total">   55.66   55.74</time>
   <energy>
    <i name="e_fr_energy">   -701.35763789 </i>
    <i name="e_wo_entrp">   -701.35730022 </i>
    <i name="e_0_energy">   -701.35752534 </i>
   </energy>
  </scstep>
  <scstep>
   <time name="dav">   53.17   53.23</time>
   <time name="total">   53.83   53.90</time>
   <energy>
    <i name="e_fr_energy">   -729.27755600 </i>
    <i name="e_wo_entrp">   -729.27896234 </i>
    <i name="e_0_energy">   -729.27802478 </i>
   </energy>
  </scstep>
  <scstep>
   <time name="dav">   51.30   51.38</time>
   <time name="total">   51.97   52.05</time>
   <energy>
    <i name="e_fr_energy">   -533.94828349 </i>
    <i name="e_wo_entrp">   -533.94626757 </i>
    <i name="e_0_energy">   -533.94761152 </i>
   </energy>
  </scstep>
  <scstep>
   <time name="dav">   51.90   51.97</time>
   <time name="total">   52.58   52.65</time>
   <energy>
    <i name="e_fr_energy">   -464.86327512 </i>
    <i name="e_wo_entrp">   -464.87084663 </i>
    <i name="e_0_energy">   -464.86579896 </i>
   </energy>
  </scstep>
  <scstep>
   <time name="dav">   47.70   47.76</time>
   <time name="total">   48.37   48.44</time>
   <energy>
    <i name="e_fr_energy">   -395.98852182 </i>
    <i name="e_wo_entrp">   -395.99255174 </i>
    <i name="e_0_energy">   -395.98986513 </i>
   </energy>
  </scstep>
  <scstep>
   <time name="dav">   51.94   52.01</time>
   <time name="total">   52.61   52.68</time>
   <energy>
    <i name="e_fr_energy">   -399.43650255 </i>
    <i name="e_wo_entrp">   -399.43061339 </i>
    <i name="e_0_energy">   -399.43453950 </i>
   </energy>
  </scstep>
  <scstep>
   <time name="dav">   52.47   52.53</time>
   <time name="total">   53.15   53.22</time>
   <energy>
    <i name="e_fr_energy">   -381.47114325 </i>
    <i name="e_wo_entrp">   -381.46355957 </i>
    <i name="e_0_energy">   -381.46861536 </i>
   </energy>
  </scstep>
  <scstep>
   <time name="dav">   53.74   53.81</time>
   <time name="total">   54.42   54.49</time>
   <energy>
    <i name="e_fr_energy">   -358.79749020 </i>
    <i name="e_wo_entrp">   -358.79455023 </i>
    <i name="e_0_energy">   -358.79651021 </i>
   </energy>
  </scstep>
  <scstep>
   <time name="dav">   52.78   52.84</time>
   <time name="total">   53.46   53.53</time>
   <energy>
    <i name="e_fr_energy">   -344.00646168 </i>
    <i name="e_wo_entrp">   -344.00144178 </i>
    <i name="e_0_energy">   -344.00478838 </i>
   </energy>
  </scstep>
  <scstep>
   <time name="dav">   52.51   52.58</time>
   <time name="total">   53.19   53.25</time>
   <energy>
    <i name="e_fr_energy">   -334.94640827 </i>
    <i name="e_wo_entrp">   -334.93820024 </i>
    <i name="e_0_energy">   -334.94367226 </i>
   </energy>
  </scstep>
  <scstep>
   <time name="dav">   52.09   52.15</time>
   <time name="total">   52.77   52.86</time>
   <energy>
    <i name="e_fr_energy">   -322.23234344 </i>
    <i name="e_wo_entrp">   -322.21967090 </i>
    <i name="e_0_energy">   -322.22811926 </i>
   </energy>
  </scstep>
  <scstep>
   <time name="dav">   48.81   48.87</time>
   <time name="total">   49.48   49.54</time>
   <energy>
    <i name="e_fr_energy">   -312.91176162 </i>
    <i name="e_wo_entrp">   -312.90482120 </i>
    <i name="e_0_energy">   -312.90944814 </i>
   </energy>
  </scstep>
  <scstep>
   <time name="dav">   54.50   54.57</time>
   <time name="total">   55.19   55.26</time>
   <energy>
    <i name="e_fr_energy">   -308.81158579 </i>
    <i name="e_wo_entrp">   -308.80988388 </i>
    <i name="e_0_energy">   -308.81101849 </i>
   </energy>
  </scstep>
  <scstep>
   <time name="dav">   49.57   49.63</time>
   <time name="total">   50.25   50.31</time>
   <energy>
    <i name="e_fr_energy">   -307.57440178 </i>
    <i name="e_wo_entrp">   -307.56606317 </i>
    <i name="e_0_energy">   -307.57162224 </i>
   </energy>
  </scstep>
  <scstep>
   <time name="dav">   46.16   46.22</time>
   <time name="total">   46.85   46.92</time>
   <energy>
    <i name="e_fr_energy">   -308.73843227 </i>
    <i name="e_wo_entrp">   -308.73706922 </i>
    <i name="e_0_energy">   -308.73797792 </i>
   </energy>
  </scstep>
  <scstep>
   <time name="dav">   51.44   51.50</time>
   <time name="total">   52.12   52.18</time>
   <energy>
    <i name="e_fr_energy">   -306.02888131 </i>
    <i name="e_wo_entrp">   -306.03585014 </i>
    <i name="e_0_energy">   -306.03120425 </i>
   </energy>
  </scstep>
  <scstep>
   <time name="dav">   48.35   48.40</time>
   <time name="total">   49.03   49.09</time>
   <energy>
    <i name="e_fr_energy">   -303.93427639 </i>
    <i name="e_wo_entrp">   -303.92850182 </i>
    <i name="e_0_energy">   -303.93235153 </i>
   </energy>
  </scstep>
  <scstep>
   <time name="dav">   52.04   52.10</time>
   <time name="total">   52.71   52.77</time>
   <energy>
    <i name="e_fr_energy">   -303.64426726 </i>
    <i name="e_wo_entrp">   -303.63886004 </i>
    <i name="e_0_energy">   -303.64246485 </i>
   </energy>
  </scstep>
  <scstep>
   <time name="dav">   46.70   46.75</time>
   <time name="total">   47.39   47.45</time>
   <energy>
    <i name="e_fr_energy">   -303.35220569 </i>
    <i name="e_wo_entrp">   -303.34161784 </i>
    <i name="e_0_energy">   -303.34867641 </i>
   </energy>
  </scstep>
  <scstep>
   <time name="dav">   49.13   49.19</time>
   <time name="total">   49.81   49.87</time>
   <energy>
    <i name="e_fr_energy">   -303.32254976 </i>
    <i name="e_wo_entrp">   -303.31351407 </i>
    <i name="e_0_energy">   -303.31953786 </i>
   </energy>
  </scstep>
  <scstep>
   <time name="dav">   48.70   48.76</time>
   <time name="total">   49.38   49.44</time>
   <energy>
    <i name="e_fr_energy">   -303.36354779 </i>
    <i name="e_wo_entrp">   -303.35649547 </i>
    <i name="e_0_energy">   -303.36119702 </i>
   </energy>
  </scstep>
  <scstep>
   <time name="dav">   47.59   47.65</time>
   <time name="total">   48.27   48.33</time>
   <energy>
    <i name="e_fr_energy">   -303.35881129 </i>
    <i name="e_wo_entrp">   -303.35005298 </i>
    <i name="e_0_energy">   -303.35589185 </i>
   </energy>
  </scstep>
  <scstep>
   <time name="dav">   49.82   49.88</time>
   <time name="total">   50.50   50.57</time>
   <energy>
    <i name="e_fr_energy">   -303.22179037 </i>
    <i name="e_wo_entrp">   -303.21147139 </i>
    <i name="e_0_energy">   -303.21835071 </i>
   </energy>
  </scstep>
  <scstep>
   <time name="dav">   50.08   50.14</time>
   <time name="total">   50.76   50.82</time>
   <energy>
    <i name="e_fr_energy">   -303.24760557 </i>
    <i name="e_wo_entrp">   -303.24078222 </i>
    <i name="e_0_energy">   -303.24533112 </i>
   </energy>
  </scstep>
  <scstep>
   <time name="dav">   51.87   51.93</time>
   <time name="total">   52.55   52.62</time>
   <energy>
    <i name="e_fr_energy">   -303.27855063 </i>
    <i name="e_wo_entrp">   -303.27056078 </i>
    <i name="e_0_energy">   -303.27588735 </i>
   </energy>
  </scstep>
  <scstep>
   <time name="dav">   51.13   51.19</time>
   <time name="total">   51.81   51.87</time>
   <energy>
    <i name="e_fr_energy">   -303.18590064 </i>
    <i name="e_wo_entrp">   -303.17772109 </i>
    <i name="e_0_energy">   -303.18317412 </i>
   </energy>
  </scstep>
  <scstep>
   <time name="dav">   52.34   52.40</time>
   <time name="total">   53.02   53.09</time>
   <energy>
    <i name="e_fr_energy">   -303.14982320 </i>
    <i name="e_wo_entrp">   -303.14201438 </i>
    <i name="e_0_energy">   -303.14722026 </i>
   </energy>
  </scstep>
  <scstep>
   <time name="dav">   47.91   47.97</time>
   <time name="total">   48.59   48.65</time>
   <energy>
    <i name="e_fr_energy">   -303.11550374 </i>
    <i name="e_wo_entrp">   -303.10707912 </i>
    <i name="e_0_energy">   -303.11269553 </i>
   </energy>
  </scstep>
  <scstep>
   <time name="dav">   51.10   51.16</time>
   <time name="total">   51.78   51.85</time>
   <energy>
    <i name="e_fr_energy">   -303.09771926 </i>
    <i name="e_wo_entrp">   -303.09004767 </i>
    <i name="e_0_energy">   -303.09516206 </i>
   </energy>
  </scstep>
  <scstep>
   <time name="dav">   46.56   46.62</time>
   <time name="total">   47.24   47.30</time>
   <energy>
    <i name="e_fr_energy">   -303.09669446 </i>
    <i name="e_wo_entrp">   -303.08856428 </i>
    <i name="e_0_energy">   -303.09398440 </i>
   </energy>
  </scstep>
  <scstep>
   <time name="dav">   50.10   50.16</time>
   <time name="total">   50.78   50.85</time>
   <energy>
    <i name="e_fr_energy">   -303.07030281 </i>
    <i name="e_wo_entrp">   -303.06179009 </i>
    <i name="e_0_energy">   -303.06746524 </i>
   </energy>
  </scstep>
  <scstep>
   <time name="dav">   49.67   49.72</time>
   <time name="total">   50.34   50.40</time>
   <energy>
    <i name="e_fr_energy">   -303.06209067 </i>
    <i name="e_wo_entrp">   -303.05357386 </i>
    <i name="e_0_energy">   -303.05925173 </i>
   </energy>
  </scstep>
  <scstep>
   <time name="dav">   47.43   47.49</time>
   <time name="total">   48.12   48.19</time>
   <energy>
    <i name="e_fr_energy">   -303.06200075 </i>
    <i name="e_wo_entrp">   -303.05346661 </i>
    <i name="e_0_energy">   -303.05915604 </i>
   </energy>
  </scstep>
  <scstep>
   <time name="dav">   45.49   45.56</time>
   <time name="total">   46.16   46.23</time>
   <energy>
    <i name="e_fr_energy">   -303.05911642 </i>
    <i name="e_wo_entrp">   -303.05045131 </i>
    <i name="e_0_energy">   -303.05622805 </i>
   </energy>
  </scstep>
  <scstep>
   <time name="dav">   43.77   43.84</time>
   <time name="total">   44.45   44.53</time>
   <energy>
    <i name="e_fr_energy">   -303.05711136 </i>
    <i name="e_wo_entrp">   -303.04825793 </i>
    <i name="e_0_energy">   -303.05416022 </i>
   </energy>
  </scstep>
  <scstep>
   <time name="dav">   31.66   31.70</time>
   <time name="total">   32.34   32.38</time>
   <energy>
    <i name="e_fr_energy">   -303.05662780 </i>
    <i name="e_wo_entrp">   -303.04771048 </i>
    <i name="e_0_energy">   -303.05365536 </i>
   </energy>
  </scstep>
  <scstep>
   <time name="dav">   30.42   30.46</time>
   <time name="total">   31.11   31.15</time>
   <energy>
    <i name="e_fr_energy">   -303.05613338 </i>
    <i name="e_wo_entrp">   -303.04712966 </i>
    <i name="e_0_energy">   -303.05313214 </i>
   </energy>
  </scstep>
  <scstep>
   <time name="dav">   43.37   43.43</time>
   <time name="total">   44.05   44.11</time>
   <energy>
    <i name="e_fr_energy">   -303.05572219 </i>
    <i name="e_wo_entrp">   -303.04655255 </i>
    <i name="e_0_energy">   -303.05266564 </i>
   </energy>
  </scstep>
  <scstep>
   <time name="dav">   26.07   26.10</time>
   <time name="total">   26.15   26.19</time>
   <energy>
    <i name="alphaZ">   1153.76813855 </i>
    <i name="ewald"> -11089.35092532 </i>
    <i name="hartreedc">  -3086.72659204 </i>
    <i name="XCdc">   -823.47910980 </i>
    <i name="pawpsdc">  18446.55420151 </i>
    <i name="pawaedc"> -17008.40380988 </i>
    <i name="eentropy">     -0.00920135 </i>
    <i name="bandstr">   -770.58205060 </i>
    <i name="atom">  12875.17371654 </i>
    <i name="e_fr_energy">   -303.05563241 </i>
    <i name="e_wo_entrp">   -303.04643106 </i>
    <i name="e_0_energy">   -303.05256529 </i>
   </energy>
  </scstep>
  <structure>
   <crystal>
    <varray name="basis" >
     <v>      -3.16000000      -3.16000000      -3.16000000 </v>
     <v>       1.58000000       1.58000000      -7.90000000 </v>
     <v>       7.90000000      -7.90000000      -1.58000000 </v>
    </varray>
    <i name="volume">    473.31744000 </i>
    <varray name="rec_basis" >
     <v>      -0.13713080      -0.12658228      -0.05274262 </v>
     <v>       0.04219409       0.06329114      -0.10548523 </v>
     <v>       0.06329114      -0.06329114       0.00000000 </v>
    </varray>
   </crystal>
   <varray name="positions" >
    <v>       0.96666667       0.93333333       0.40000000 </v>
    <v>       0.63333333       0.26666667       0.40000000 </v>
    <v>       0.50000000       0.00000000       0.00000000 </v>
    <v>       0.00000000       0.00000000       0.00000000 </v>
    <v>       0.10000000       0.20000000       0.80000000 </v>
    <v>       0.03333333       0.06666667       0.60000000 </v>
    <v>       0.90000000       0.80000000       0.20000000 </v>
    <v>       0.80000000       0.60000000       0.40000000 </v>
    <v>       0.73333333       0.46666667       0.20000000 </v>
    <v>       0.66666667       0.33333333       0.00000000 </v>
    <v>       0.36666667       0.73333333       0.60000000 </v>
    <v>       0.13333333       0.26666667       0.40000000 </v>
    <v>       0.83333333       0.66666667       0.00000000 </v>
    <v>       0.93333333       0.86666667       0.80000000 </v>
    <v>       0.56666667       0.13333333       0.20000000 </v>
    <v>       0.43333333       0.86666667       0.80000000 </v>
    <v>       0.30000000       0.60000000       0.40000000 </v>
    <v>       0.86666667       0.73333333       0.60000000 </v>
    <v>       0.46666667       0.93333333       0.40000000 </v>
    <v>       0.16666667       0.33333333       0.00000000 </v>
    <v>       0.26666667       0.53333333       0.80000000 </v>
    <v>       0.20000000       0.40000000       0.60000000 </v>
    <v>       0.06666667       0.13333333       0.20000000 </v>
    <v>       0.76666667       0.53333333       0.80000000 </v>
    <v>       0.70000000       0.40000000       0.60000000 </v>
    <v>       0.60000000       0.20000000       0.80000000 </v>
    <v>       0.53333333       0.06666667       0.60000000 </v>
    <v>       0.33333333       0.66666667       0.00000000 </v>
    <v>       0.23333333       0.46666667       0.20000000 </v>
   </varray>
  </structure>
  <varray name="forces" >
   <v>       0.19482905       0.56089487       0.28699325 </v>
   <v>       0.27519718      -0.12954145       0.06792606 </v>
   <v>       0.28372675      -0.31787203       0.20321113 </v>
   <v>       0.32167991       0.05934434       0.02854997 </v>
   <v>      -0.05242028       0.55305024      -0.61541703 </v>
   <v>      -0.37197056       0.29138581      -0.32418613 </v>
   <v>      -0.05977433      -0.57499616       0.45824856 </v>
   <v>      -0.76533962      -0.31507312       0.50405418 </v>
   <v>       0.13351731       0.41456567      -0.40354320 </v>
   <v>       0.22466623       0.49290153      -0.50432689 </v>
   <v>      -0.30489739      -0.33564778       0.30786977 </v>
   <v>       0.00832253       0.29876391      -0.62720661 </v>
   <v>       0.07396438      -0.66349030       0.31532822 </v>
   <v>       0.37166518       0.19356610      -0.03234605 </v>
   <v>      -0.43524682       0.40619998      -0.54826804 </v>
   <v>      -0.79424251      -0.21633678       0.59315599 </v>
   <v>      -0.25131652       0.44426261      -0.54361010 </v>
   <v>      -0.06799037       0.32697415       0.46359517 </v>
   <v>       0.02181022      -0.46554545       0.44634462 </v>
   <v>       0.16384933      -0.30269177      -0.39619936 </v>
   <v>      -0.48727439      -0.05409749      -0.20896415 </v>
   <v>      -0.15388758      -0.32866859       0.54864039 </v>
   <v>       0.26553856      -0.30178368      -0.09535614 </v>
   <v>       0.17099038      -0.30828342       0.56798491 </v>
   <v>       0.64939808       0.25765749      -0.32560430 </v>
   <v>      -0.05081572       0.46354596      -0.30895651 </v>
   <v>       0.25788001      -0.37824624      -0.45474322 </v>
   <v>       0.07836767      -0.32286517       0.51934832 </v>
   <v>       0.29977334       0.25202674       0.07747720 </v>
  </varray>
  <varray name="stress" >
   <v>     -30.78520024       3.92742070       3.32816659 </v>
   <v>       3.92742075     -28.97576519      -0.61998434 </v>
   <v>       3.32816652      -0.61998435     -24.24497749 </v>
  </varray>
  <energy>
   <i name="e_fr_energy">   -303.05563241 </i>
   <i name="e_wo_entrp">   -303.05256529 </i>
   <i name="e_0_energy">     -0.00920135 </i>
  </energy>
  <time name="totalsc"> 2505.23 2508.57</time>
 </calculation>
 <calculation>
  <scstep>
   <time name="dav">   40.71   40.76</time>
   <time name="total">   41.40   41.46</time>
   <energy>
    <i name="alphaZ">   1202.75379994 </i>
    <i name="ewald"> -11289.78091212 </i>
    <i name="hartreedc">  -3086.40230707 </i>
    <i name="XCdc">   -818.07586612 </i>
    <i name="pawpsdc">  18456.24838369 </i>
    <i name="pawaedc"> -17018.14946088 </i>
    <i name="eentropy">     -0.01043822 </i>
    <i name="bandstr">   -626.37512428 </i>
    <i name="atom">  12875.17371654 </i>
    <i name="e_fr_energy">   -304.61820854 </i>
    <i name="e_wo_entrp">   -304.60777032 </i>
    <i name="e_0_energy">   -304.61472913 </i>
   </energy>
  </scstep>
  <scstep>
   <time name="dav">   52.42   52.48</time>
   <time name="total">   53.11   53.18</time>
   <energy>
    <i name="e_fr_energy">   -305.60281329 </i>
    <i name="e_wo_entrp">   -305.59769764 </i>
    <i name="e_0_energy">   -305.60110807 </i>
   </energy>
  </scstep>
  <scstep>
   <time name="dav">   51.14   51.21</time>
   <time name="total">   51.81   51.88</time>
   <energy>
    <i name="e_fr_energy">   -304.79889810 </i>
    <i name="e_wo_entrp">   -304.79135242 </i>
    <i name="e_0_energy">   -304.79638288 </i>
   </energy>
  </scstep>
  <scstep>
   <time name="dav">   47.74   47.79</time>
   <time name="total">   48.41   48.48</time>
   <energy>
    <i name="e_fr_energy">   -304.08021798 </i>
    <i name="e_wo_entrp">   -304.06175066 </i>
    <i name="e_0_energy">   -304.07406221 </i>
   </energy>
  </scstep>
  <scstep>
   <time name="dav">   51.11   51.18</time>
   <time name="total">   51.78   51.84</time>
   <energy>
    <i name="e_fr_energy">   -303.65022701 </i>
    <i name="e_wo_entrp">   -303.64714483 </i>
    <i name="e_0_energy">   -303.64919962 </i>
   </energy>
  </scstep>
  <scstep>
   <time name="dav">   51.58   51.65</time>
   <time name="total">   52.26   52.34</time>
   <energy>
    <i name="e_fr_energy">   -303.51545501 </i>
    <i name="e_wo_entrp">   -303.50566601 </i>
    <i name="e_0_energy">   -303.51219201 </i>
   </energy>
  </scstep>
  <scstep>
   <time name="dav">   53.27   53.34</time>
   <time name="total">   53.93   54.01</time>
   <energy>
    <i name="e_fr_energy">   -303.43415245 </i>
    <i name="e_wo_entrp">   -303.42336672 </i>
    <i name="e_0_energy">   -303.43055721 </i>
   </energy>
  </scstep>
  <scstep>
   <time name="dav">   55.38   55.44</time>
   <time name="total">   56.06   56.14</time>
   <energy>
    <i name="e_fr_energy">   -303.41195076 </i>
    <i name="e_wo_entrp">   -303.40259008 </i>
    <i name="e_0_energy">   -303.40883054 </i>
   </energy>
  </scstep>
  <scstep>
   <time name="dav">   52.79   52.85</time>
   <time name="total">   53.45   53.52</time>
   <energy>
    <i name="e_fr_energy">   -303.40395624 </i>
    <i name="e_wo_entrp">   -303.39445310 </i>
    <i name="e_0_energy">   -303.40078852 </i>
   </energy>
  </scstep>
  <scstep>
   <time name="dav">   52.60   52.67</time>
   <time name="total">   53.29   53.37</time>
   <energy>
    <i name="e_fr_energy">   -303.40353773 </i>
    <i name="e_wo_entrp">   -303.39406066 </i>
    <i name="e_0_energy">   -303.40037870 </i>
   </energy>
  </scstep>
  <scstep>
   <time name="dav">   53.55   53.61</time>
   <time name="total">   54.22   54.28</time>
   <energy>
    <i name="e_fr_energy">   -303.40668041 </i>
    <i name="e_wo_entrp">   -303.39719057 </i>
    <i name="e_0_energy">   -303.40351713 </i>
   </energy>
  </scstep>
  <scstep>
   <time name="dav">   48.82   48.88</time>
   <time name="total">   49.52   49.58</time>
   <energy>
    <i name="e_fr_energy">   -303.41493511 </i>
    <i name="e_wo_entrp">   -303.40595394 </i>
    <i name="e_0_energy">   -303.41194139 </i>
   </energy>
  </scstep>
  <scstep>
   <time name="dav">   49.97   50.03</time>
   <time name="total">   50.64   50.70</time>
   <energy>
    <i name="e_fr_energy">   -303.41179109 </i>
    <i name="e_wo_entrp">   -303.40222528 </i>
    <i name="e_0_energy">   -303.40860249 </i>
   </energy>
  </scstep>
  <scstep>
   <time name="dav">   50.89   50.95</time>
   <time name="total">   51.57   51.64</time>
   <energy>
    <i name="e_fr_energy">   -303.41182473 </i>
    <i name="e_wo_entrp">   -303.40238594 </i>
    <i name="e_0_energy">   -303.40867847 </i>
   </energy>
  </scstep>
  <scstep>
   <time name="dav">   47.06   47.12</time>
   <time name="total">   47.73   47.79</time>
   <energy>
    <i name="e_fr_energy">   -303.41094183 </i>
    <i name="e_wo_entrp">   -303.40156142 </i>
    <i name="e_0_energy">   -303.40781502 </i>
   </energy>
  </scstep>
  <scstep>
   <time name="dav">   45.41   45.47</time>
   <time name="total">   46.09   46.15</time>
   <energy>
    <i name="e_fr_energy">   -303.41075836 </i>
    <i name="e_wo_entrp">   -303.40133360 </i>
    <i name="e_0_energy">   -303.40761677 </i>
   </energy>
  </scstep>
  <scstep>
   <time name="dav">   39.29   39.33</time>
   <time name="total">   39.36   39.40</time>
   <energy>
    <i name="alphaZ">   1202.75379994 </i>
    <i name="ewald"> -11289.78091212 </i>
    <i name="hartreedc">  -3007.14145001 </i>
    <i name="XCdc">   -820.59800933 </i>
    <i name="pawpsdc">  19432.36774202 </i>
    <i name="pawaedc"> -17995.41413306 </i>
    <i name="eentropy">     -0.00944064 </i>
    <i name="bandstr">   -700.76202953 </i>
    <i name="atom">  12875.17371654 </i>
    <i name="e_fr_energy">   -303.41071620 </i>
    <i name="e_wo_entrp">   -303.40127556 </i>
    <i name="e_0_energy">   -303.40756932 </i>
   </energy>
  </scstep>
  <structure>
   <crystal>
    <varray name="basis" >
     <v>      -3.12345929      -3.12013793      -3.12655407 </v>
     <v>       1.54622405       1.56295741      -7.80376802 </v>
     <v>       7.76264685      -7.77177470      -1.54584581 </v>
    </varray>
    <i name="volume">    454.04020483 </i>
    <varray name="rec_basis" >
     <v>      -0.13889787      -0.12815533      -0.05318822 </v>
     <v>       0.04289405       0.06408842      -0.10680849 </v>
     <v>       0.06438968      -0.06433154      -0.00012642 </v>
    </varray>
   </crystal>
   <varray name="positions" >
    <v>       0.96122233       0.93398204       0.39888228 </v>
    <v>       0.63213098       0.26648565       0.40123580 </v>
    <v>       0.49954707      -0.00142715       0.00183688 </v>
    <v>      -0.00256313       0.00069071       0.00080100 </v>
    <v>       0.09853539       0.20471373       0.79815130 </v>
    <v>       0.03483960       0.06844895       0.59797455 </v>
    <v>       0.90274076       0.79579070       0.20157314 </v>
    <v>       0.80570465       0.59491501       0.39862519 </v>
    <v>       0.73094522       0.47025784       0.19914187 </v>
    <v>       0.66345363       0.33786211      -0.00081901 </v>
    <v>       0.36995007       0.73012114       0.60009389 </v>
    <v>       0.13304971       0.27078762       0.39911319 </v>
    <v>       0.83609339       0.66318670       0.00225169 </v>
    <v>       0.92977482       0.86817884       0.80054380 </v>
    <v>       0.56846058       0.13647770       0.19743078 </v>
    <v>       0.43839953       0.86137089       0.79823546 </v>
    <v>       0.30033282       0.60361128       0.39787617 </v>
    <v>       0.86394015       0.73183411       0.59879404 </v>
    <v>       0.46822961       0.92968486       0.40148806 </v>
    <v>       0.16843926       0.33475885       0.00142451 </v>
    <v>       0.27075231       0.53323967       0.79867737 </v>
    <v>       0.20162914       0.39589125       0.60053366 </v>
    <v>       0.06699551       0.13343766       0.20173222 </v>
    <v>       0.76597285       0.52984969       0.80146338 </v>
    <v>       0.69495893       0.40376556       0.60119611 </v>
    <v>       0.59829158       0.20288417       0.79842948 </v>
    <v>       0.53509420       0.06835082       0.60194230 </v>
    <v>       0.33346506       0.66319747       0.00122510 </v>
    <v>       0.22961398       0.46765212       0.20014579 </v>
   </varray>
  </structure>
  <varray name="forces" >
   <v>       0.09581526       0.31944337       0.12075460 </v>
   <v>       0.17252515      -0.01101729      -0.00645725 </v>
   <v>       0.29213647      -0.24543447       0.37022028 </v>
   <v>       0.06715267      -0.01028032      -0.07135605 </v>
   <v>      -0.04635967       0.19957252      -0.33586365 </v>
   <v>      -0.20741082       0.12819282      -0.18094715 </v>
   <v>      -0.11638596      -0.34735262       0.27642429 </v>
   <v>      -0.24655090      -0.12692330       0.19482912 </v>
   <v>       0.25583189       0.35666495      -0.28513880 </v>
   <v>       0.04968127       0.45549796      -0.32467129 </v>
   <v>      -0.27696815      -0.21527658       0.28123075 </v>
   <v>      -0.02988257       0.12989111      -0.21271840 </v>
   <v>       0.07227785      -0.30444306       0.07557726 </v>
   <v>       0.09046700       0.08043992      -0.04789881 </v>
   <v>      -0.01534855       0.19265765      -0.27138640 </v>
   <v>      -0.16136340      -0.02532650       0.32120074 </v>
   <v>      -0.41531621       0.29619181      -0.39662116 </v>
   <v>      -0.06689863       0.16219796       0.34376353 </v>
   <v>      -0.06878737      -0.15580516       0.37413074 </v>
   <v>       0.10822144      -0.22263077      -0.29883282 </v>
   <v>      -0.40034376      -0.03328715      -0.08064068 </v>
   <v>      -0.10845208      -0.14447234       0.27791240 </v>
   <v>      -0.00040801      -0.33423721      -0.08602946 </v>
   <v>       0.07653374      -0.22647621       0.48647181 </v>
   <v>       0.57606613       0.11411121      -0.18702959 </v>
   <v>      -0.08203982       0.45256137      -0.30041862 </v>
   <v>       0.17161319      -0.33073017      -0.34616547 </v>
   <v>       0.11994910      -0.37332552       0.35747379 </v>
   <v>       0.09424472       0.21959601      -0.04781370 </v>
  </varray>
  <varray name="stress" >
   <v>      49.77219357       3.22665702       1.33294999 </v>
   <v>       3.22665702      50.08215556       0.79439822 </v>
   <v>       1.33295000       0.79439818      52.41855318 </v>
  </varray>
  <energy>
   <i name="e_fr_energy">   -303.41071620 </i>
   <i name="e_wo_entrp">   -303.40756932 </i>
   <i name="e_0_energy">     -0.00944064 </i>
  </energy>
  <time name="totalsc">  874.72  875.98</time>
 </calculation>
 <calculation>
  <scstep>
   <time name="dav">   40.82   40.86</time>
   <time name="total">   41.49   41.53</time>
   <energy>
    <i name="alphaZ">   1192.70222899 </i>
    <i name="ewald"> -11249.53316548 </i>
    <i name="hartreedc">  -3007.20118230 </i>
    <i name="XCdc">   -821.67466537 </i>
    <i name="pawpsdc">  19431.70544822 </i>
    <i name="pawaedc"> -17994.64790307 </i>
    <i name="eentropy">     -0.01002706 </i>
    <i name="bandstr">   -729.99939475 </i>
    <i name="atom">  12875.17371654 </i>
    <i name="e_fr_energy">   -303.48494429 </i>
    <i name="e_wo_entrp">   -303.47491722 </i>
    <i name="e_0_energy">   -303.48160193 </i>
   </energy>
  </scstep>
  <scstep>
   <time name="dav">   52.83   52.88</time>
   <time name="total">   53.50   53.57</time>
   <energy>
    <i name="e_fr_energy">   -303.52193964 </i>
    <i name="e_wo_entrp">   -303.51064913 </i>
    <i name="e_0_energy">   -303.51817614 </i>
   </energy>
  </scstep>
  <scstep>
   <time name="dav">   52.20   52.25</time>
   <time name="total">   52.87   52.92</time>
   <energy>
    <i name="e_fr_energy">   -303.49485603 </i>
    <i name="e_wo_entrp">   -303.48452413 </i>
    <i name="e_0_energy">   -303.49141207 </i>
   </energy>
  </scstep>
  <scstep>
   <time name="dav">   48.21   48.26</time>
   <time name="total">   48.88   48.95</time>
   <energy>
    <i name="e_fr_energy">   -303.47156842 </i>
    <i name="e_wo_entrp">   -303.46416628 </i>
    <i name="e_0_energy">   -303.46910104 </i>
   </energy>
  </scstep>
  <scstep>
   <time name="dav">   49.51   49.64</time>
   <time name="total">   50.15   50.31</time>
   <energy>
    <i name="e_fr_energy">   -303.44769368 </i>
    <i name="e_wo_entrp">   -303.43678404 </i>
    <i name="e_0_energy">   -303.44405713 </i>
   </energy>
  </scstep>
  <scstep>
   <time name="dav">   51.17   51.24</time>
   <time name="total">   51.85   51.92</time>
   <energy>
    <i name="e_fr_energy">   -303.43982607 </i>
    <i name="e_wo_entrp">   -303.43021908 </i>
    <i name="e_0_energy">   -303.43662374 </i>
   </energy>
  </scstep>
  <scstep>
   <time name="dav">   52.30   52.36</time>
   <time name="total">   52.97   53.03</time>
   <energy>
    <i name="e_fr_energy">   -303.43721462 </i>
    <i name="e_wo_entrp">   -303.42784337 </i>
    <i name="e_0_energy">   -303.43409087 </i>
   </energy>
  </scstep>
  <scstep>
   <time name="dav">   50.26   50.32</time>
   <time name="total">   50.93   51.00</time>
   <energy>
    <i name="e_fr_energy">   -303.43584610 </i>
    <i name="e_wo_entrp">   -303.42613705 </i>
    <i name="e_0_energy">   -303.43260975 </i>
   </energy>
  </scstep>
  <scstep>
   <time name="dav">   48.09   48.15</time>
   <time name="total">   48.75   48.81</time>
   <energy>
    <i name="e_fr_energy">   -303.43537855 </i>
    <i name="e_wo_entrp">   -303.42577773 </i>
    <i name="e_0_energy">   -303.43217827 </i>
   </energy>
  </scstep>
  <scstep>
   <time name="dav">   44.75   44.80</time>
   <time name="total">   45.43   45.49</time>
   <energy>
    <i name="e_fr_energy">   -303.43513530 </i>
    <i name="e_wo_entrp">   -303.42543339 </i>
    <i name="e_0_energy">   -303.43190133 </i>
   </energy>
  </scstep>
  <scstep>
   <time name="dav">   39.77   39.82</time>
   <time name="total">   39.84   39.89</time>
   <energy>
    <i name="alphaZ">   1192.70222899 </i>
    <i name="ewald"> -11249.53316548 </i>
    <i name="hartreedc">  -3023.93994093 </i>
    <i name="XCdc">   -821.13259045 </i>
    <i name="pawpsdc">  19215.17311202 </i>
    <i name="pawaedc"> -17776.89523018 </i>
    <i name="eentropy">     -0.00966499 </i>
    <i name="bandstr">   -714.97362468 </i>
    <i name="atom">  12875.17371654 </i>
    <i name="e_fr_energy">   -303.43515917 </i>
    <i name="e_wo_entrp">   -303.42549418 </i>
    <i name="e_0_energy">   -303.43193751 </i>
   </energy>
  </scstep>
  <structure>
   <crystal>
    <varray name="basis" >
     <v>      -3.13079226      -3.12813743      -3.13326598 </v>
     <v>       1.55300219       1.56637751      -7.82307980 </v>
     <v>       7.79021081      -7.79750688      -1.55269985 </v>
    </varray>
    <i name="volume">    457.86665642 </i>
    <varray name="rec_basis" >
     <v>      -0.13853953      -0.12783655      -0.05309833 </v>
     <v>       0.04275176       0.06392687      -0.10654024 </v>
     <v>       0.06416616      -0.06411999      -0.00010046 </v>
    </varray>
   </crystal>
   <varray name="positions" >
    <v>       0.96232801       0.93384988       0.39911051 </v>
    <v>       0.63237530       0.26652198       0.40098365 </v>
    <v>       0.49963885      -0.00113761       0.00146229 </v>
    <v>      -0.00204223       0.00054982       0.00063747 </v>
    <v>       0.09883418       0.20375598       0.79852767 </v>
    <v>       0.03453400       0.06808740       0.59838751 </v>
    <v>       0.90218294       0.79664613       0.20125285 </v>
    <v>       0.80454413       0.59594954       0.39890667 </v>
    <v>       0.73143132       0.46952790       0.19931634 </v>
    <v>       0.66410759       0.33694149      -0.00065269 </v>
    <v>       0.36928216       0.73077436       0.60007529 </v>
    <v>       0.13310862       0.26995023       0.39929330 </v>
    <v>       0.83553203       0.66389372       0.00179274 </v>
    <v>       0.93049811       0.86787095       0.80043262 </v>
    <v>       0.56809695       0.13583948       0.19795442 </v>
    <v>       0.43736852       0.86244830       0.79859656 </v>
    <v>       0.30026615       0.60287788       0.39830886 </v>
    <v>       0.86449312       0.73213885       0.59904064 </v>
    <v>       0.46791117       0.93042620       0.40118506 </v>
    <v>       0.16808002       0.33446893       0.00113336 </v>
    <v>       0.26992235       0.53325951       0.79894717 </v>
    <v>       0.20129693       0.39672640       0.60042557 </v>
    <v>       0.06692905       0.13341603       0.20137862 </v>
    <v>       0.76611277       0.53055728       0.80116548 </v>
    <v>       0.69598419       0.40299933       0.60095137 </v>
    <v>       0.59863928       0.20229818       0.79874948 </v>
    <v>       0.53473752       0.06800820       0.60154542 </v>
    <v>       0.33343729       0.66390228       0.00097580 </v>
    <v>       0.23036968       0.46745138       0.20011598 </v>
   </varray>
  </structure>
  <varray name="forces" >
   <v>       0.11390557       0.37466899       0.16904027 </v>
   <v>       0.20115000      -0.03147924       0.01314621 </v>
   <v>       0.28350966      -0.26803201       0.33547678 </v>
   <v>       0.12669111       0.00547299      -0.04003992 </v>
   <v>      -0.05131310       0.28324654      -0.40764019 </v>
   <v>      -0.24864304       0.16098470      -0.21288532 </v>
   <v>      -0.10694896      -0.40353155       0.32369518 </v>
   <v>      -0.36914370      -0.16415791       0.26053717 </v>
   <v>       0.23026150       0.37303970      -0.32019468 </v>
   <v>       0.08546197       0.47496171      -0.36876349 </v>
   <v>      -0.28511794      -0.24608047       0.28545407 </v>
   <v>      -0.01755626       0.16997030      -0.31158183 </v>
   <v>       0.07828266      -0.37583458       0.11564948 </v>
   <v>       0.17149098       0.12156402      -0.05076615 </v>
   <v>      -0.11532073       0.23934531      -0.32767314 </v>
   <v>      -0.29675467      -0.08231351       0.39828933 </v>
   <v>      -0.38788356       0.33498648      -0.42589359 </v>
   <v>      -0.06376341       0.19258531       0.37603694 </v>
   <v>      -0.05627065      -0.22210380       0.39311467 </v>
   <v>       0.11931605      -0.23853946      -0.32891050 </v>
   <v>      -0.42490982      -0.05263314      -0.10620450 </v>
   <v>      -0.11671128      -0.18566879       0.32796773 </v>
   <v>       0.05712340      -0.32588243      -0.08464480 </v>
   <v>       0.10072354      -0.24500686       0.50511702 </v>
   <v>       0.60414432       0.13405575      -0.21962221 </v>
   <v>      -0.07451187       0.45522598      -0.30111654 </v>
   <v>       0.19534694      -0.34473375      -0.37128189 </v>
   <v>       0.10712628      -0.36702096       0.39746208 </v>
   <v>       0.14031499       0.23291067      -0.02376818 </v>
  </varray>
  <varray name="stress" >
   <v>      33.76939405       3.13510999       1.78901561 </v>
   <v>       3.13511000      34.29435251       0.74580082 </v>
   <v>       1.78901564       0.74580087      37.09495063 </v>
  </varray>
  <energy>
   <i name="e_fr_energy">   -303.43515917 </i>
   <i name="e_wo_entrp">   -303.43193751 </i>
   <i name="e_0_energy">     -0.00966499 </i>
  </energy>
  <time name="totalsc">  556.45  557.26</time>
 </calculation>
 <calculation>
  <scstep>
   <time name="dav">   33.43   33.47</time>
   <time name="total">   34.09   34.15</time>
   <energy>
    <i name="alphaZ">   1182.40067947 </i>
    <i name="ewald"> -11257.88317649 </i>
    <i name="hartreedc">  -2975.68771832 </i>
    <i name="XCdc">   -822.42950474 </i>
    <i name="pawpsdc">  19216.79012824 </i>
    <i name="pawaedc"> -17778.72615289 </i>
    <i name="eentropy">     -0.00565142 </i>
    <i name="bandstr">   -743.17867728 </i>
    <i name="atom">  12875.17371654 </i>
    <i name="e_fr_energy">   -303.54635690 </i>
    <i name="e_wo_entrp">   -303.54070548 </i>
    <i name="e_0_energy">   -303.54447309 </i>
   </energy>
  </scstep>
  <scstep>
   <time name="dav">   49.82   49.87</time>
   <time name="total">   50.48   50.53</time>
   <energy>
    <i name="e_fr_energy">   -304.18829784 </i>
    <i name="e_wo_entrp">   -304.17835216 </i>
    <i name="e_0_energy">   -304.18498261 </i>
   </energy>
  </scstep>
  <scstep>
   <time name="dav">   49.03   49.09</time>
   <time name="total">   49.72   49.79</time>
   <energy>
    <i name="e_fr_energy">   -303.85955428 </i>
    <i name="e_wo_entrp">   -303.85651554 </i>
    <i name="e_0_energy">   -303.85854137 </i>
   </energy>
  </scstep>
  <scstep>
   <time name="dav">   47.99   48.04</time>
   <time name="total">   48.64   48.72</time>
   <energy>
    <i name="e_fr_energy">   -303.84637021 </i>
    <i name="e_wo_entrp">   -303.83912771 </i>
    <i name="e_0_energy">   -303.84395604 </i>
   </energy>
  </scstep>
  <scstep>
   <time name="dav">   49.94   49.99</time>
   <time name="total">   50.61   50.67</time>
   <energy>
    <i name="e_fr_energy">   -303.79362109 </i>
    <i name="e_wo_entrp">   -303.78831637 </i>
    <i name="e_0_energy">   -303.79185285 </i>
   </energy>
  </scstep>
  <scstep>
   <time name="dav">   51.16   51.21</time>
   <time name="total">   51.82   51.87</time>
   <energy>
    <i name="e_fr_energy">   -303.78629869 </i>
    <i name="e_wo_entrp">   -303.78096207 </i>
    <i name="e_0_energy">   -303.78451982 </i>
   </energy>
  </scstep>
  <scstep>
   <time name="dav">   52.08   52.14</time>
   <time name="total">   52.76   52.84</time>
   <energy>
    <i name="e_fr_energy">   -303.78606650 </i>
    <i name="e_wo_entrp">   -303.77981460 </i>
    <i name="e_0_energy">   -303.78398253 </i>
   </energy>
  </scstep>
  <scstep>
   <time name="dav">   51.52   51.58</time>
   <time name="total">   52.19   52.25</time>
   <energy>
    <i name="e_fr_energy">   -303.77587819 </i>
    <i name="e_wo_entrp">   -303.77022148 </i>
[...]
       <r>    4.7268    1.0000 </r>
       <r>    4.7611    1.0000 </r>
       <r>    4.8319    1.0000 </r>
       <r>    4.9082    1.0000 </r>
       <r>    4.9897    1.0000 </r>
       <r>    5.0420    1.0000 </r>
       <r>    5.1012    1.0000 </r>
       <r>    5.1454    1.0000 </r>
       <r>    5.2599    1.0000 </r>
       <r>    5.2892    1.0000 </r>
       <r>    5.3064    1.0000 </r>
       <r>    5.3614    1.0000 </r>
       <r>    5.4225    1.0000 </r>
       <r>    5.4809    1.0000 </r>
       <r>    5.5188    1.0000 </r>
       <r>    5.5731    1.0000 </r>
       <r>    5.6162    1.0000 </r>
       <r>    5.6500    1.0000 </r>
       <r>    5.7266    1.0000 </r>
       <r>    5.7711    1.0000 </r>
       <r>    5.8712    1.0000 </r>
       <r>    5.9229    1.0000 </r>
       <r>    5.9498    1.0000 </r>
       <r>    6.0187    1.0001 </r>
       <r>    6.0820    1.0006 </r>
       <r>    6.1174    1.0013 </r>
       <r>    6.1389    1.0020 </r>
       <r>    6.2026    1.0067 </r>
       <r>    6.2363    1.0114 </r>
       <r>    6.3010    1.0249 </r>
       <r>    6.3436    1.0335 </r>
       <r>    6.3670    1.0355 </r>
       <r>    6.4372    1.0077 </r>
       <r>    6.4875    0.9321 </r>
       <r>    6.5061    0.8886 </r>
       <r>    6.6205    0.4686 </r>
       <r>    6.6485    0.3528 </r>
       <r>    6.7129    0.1303 </r>
       <r>    6.7321    0.0823 </r>
       <r>    6.8063   -0.0213 </r>
       <r>    6.8495   -0.0352 </r>
       <r>    6.9335   -0.0230 </r>
       <r>    7.0080   -0.0087 </r>
       <r>    7.2128   -0.0001 </r>
       <r>    7.2751   -0.0000 </r>
       <r>    7.3139   -0.0000 </r>
       <r>    7.4005   -0.0000 </r>
       <r>    7.4664   -0.0000 </r>
       <r>    7.5078   -0.0000 </r>
       <r>    7.6312   -0.0000 </r>
       <r>    7.7784   -0.0000 </r>
       <r>    8.0217   -0.0000 </r>
       <r>    8.0935   -0.0000 </r>
       <r>    8.3006   -0.0000 </r>
       <r>    8.3572   -0.0000 </r>
       <r>    8.4994   -0.0000 </r>
       <r>    8.5656   -0.0000 </r>
       <r>    8.6114   -0.0000 </r>
       <r>    8.6278   -0.0000 </r>
       <r>    8.6707   -0.0000 </r>
       <r>    8.7217   -0.0000 </r>
      </set>
     </set>
    </set>
   </array>
  </eigenvalues>
  <separator name="orbital magnetization" >
   <v name="MAGDIPOLOUT">      0.00000000      0.00000000      0.00000000</v>
  </separator>
  <dos>
   <i name="efermi">      6.61307414 </i>
   <total>
    <array>
     <dimension dim="1">gridpoints</dimension>
     <dimension dim="2">spin</dimension>
     <field>energy</field>
     <field>total</field>
     <field>integrated</field>
     <set>
      <set comment="spin 1">
       <r>   -50.3198     0.0000     0.0000 </r>
       <r>   -50.1133     0.0000     0.0000 </r>
       <r>   -49.9068     0.0000     0.0000 </r>
       <r>   -49.7003     0.0000     0.0000 </r>
       <r>   -49.4938     0.0000     0.0000 </r>
       <r>   -49.2873    -0.0000    -0.0000 </r>
       <r>   -49.0808    -0.0000    -0.0000 </r>
       <r>   -48.8743    -0.0000    -0.0000 </r>
       <r>   -48.6678    -0.0000    -0.0000 </r>
       <r>   -48.4613    -0.0000    -0.0000 </r>
       <r>   -48.2548    -0.0000    -0.0000 </r>
       <r>   -48.0483    -0.0029    -0.0006 </r>
       <r>   -47.8418    -0.2071    -0.0434 </r>
       <r>   -47.6353    -0.5128    -0.1493 </r>
       <r>   -47.4287    14.1499     2.7728 </r>
       <r>   -47.2222    31.6226     9.3030 </r>
       <r>   -47.0157    13.6052    12.1125 </r>
       <r>   -46.8092    -0.3211    12.0462 </r>
       <r>   -46.6027    -0.2205    12.0007 </r>
       <r>   -46.3962    -0.0032    12.0000 </r>
       <r>   -46.1897    -0.0000    12.0000 </r>
       <r>   -45.9832    -0.0000    12.0000 </r>
       <r>   -45.7767    -0.0000    12.0000 </r>
       <r>   -45.5702     0.0000    12.0000 </r>
       <r>   -45.3637     0.0000    12.0000 </r>
       <r>   -45.1572     0.0000    12.0000 </r>
       <r>   -44.9507     0.0000    12.0000 </r>
       <r>   -44.7442     0.0000    12.0000 </r>
       <r>   -44.5377     0.0000    12.0000 </r>
       <r>   -44.3312     0.0000    12.0000 </r>
       <r>   -44.1247     0.0000    12.0000 </r>
       <r>   -43.9182     0.0000    12.0000 </r>
       <r>   -43.7117     0.0000    12.0000 </r>
       <r>   -43.5052     0.0000    12.0000 </r>
       <r>   -43.2987     0.0000    12.0000 </r>
       <r>   -43.0921     0.0000    12.0000 </r>
       <r>   -42.8856     0.0000    12.0000 </r>
       <r>   -42.6791     0.0000    12.0000 </r>
       <r>   -42.4726     0.0000    12.0000 </r>
       <r>   -42.2661     0.0000    12.0000 </r>
       <r>   -42.0596     0.0000    12.0000 </r>
       <r>   -41.8531     0.0000    12.0000 </r>
       <r>   -41.6466     0.0000    12.0000 </r>
       <r>   -41.4401     0.0000    12.0000 </r>
       <r>   -41.2336     0.0000    12.0000 </r>
       <r>   -41.0271     0.0000    12.0000 </r>
       <r>   -40.8206     0.0000    12.0000 </r>
       <r>   -40.6141     0.0000    12.0000 </r>
       <r>   -40.4076     0.0000    12.0000 </r>
       <r>   -40.2011     0.0000    12.0000 </r>
       <r>   -39.9946     0.0000    12.0000 </r>
       <r>   -39.7881     0.0000    12.0000 </r>
       <r>   -39.5816     0.0000    12.0000 </r>
       <r>   -39.3751     0.0000    12.0000 </r>
       <r>   -39.1686     0.0000    12.0000 </r>
       <r>   -38.9620     0.0000    12.0000 </r>
       <r>   -38.7555     0.0000    12.0000 </r>
       <r>   -38.5490     0.0000    12.0000 </r>
       <r>   -38.3425     0.0000    12.0000 </r>
       <r>   -38.1360     0.0000    12.0000 </r>
       <r>   -37.9295     0.0000    12.0000 </r>
       <r>   -37.7230     0.0000    12.0000 </r>
       <r>   -37.5165     0.0000    12.0000 </r>
       <r>   -37.3100     0.0000    12.0000 </r>
       <r>   -37.1035     0.0000    12.0000 </r>
       <r>   -36.8970     0.0000    12.0000 </r>
       <r>   -36.6905     0.0000    12.0000 </r>
       <r>   -36.4840     0.0000    12.0000 </r>
       <r>   -36.2775     0.0000    12.0000 </r>
       <r>   -36.0710     0.0000    12.0000 </r>
       <r>   -35.8645     0.0000    12.0000 </r>
       <r>   -35.6580     0.0000    12.0000 </r>
       <r>   -35.4515     0.0000    12.0000 </r>
       <r>   -35.2450     0.0000    12.0000 </r>
       <r>   -35.0385     0.0000    12.0000 </r>
       <r>   -34.8320     0.0000    12.0000 </r>
       <r>   -34.6254     0.0000    12.0000 </r>
       <r>   -34.4189     0.0000    12.0000 </r>
       <r>   -34.2124     0.0000    12.0000 </r>
       <r>   -34.0059     0.0000    12.0000 </r>
       <r>   -33.7994     0.0000    12.0000 </r>
       <r>   -33.5929     0.0000    12.0000 </r>
       <r>   -33.3864     0.0000    12.0000 </r>
       <r>   -33.1799     0.0000    12.0000 </r>
       <r>   -32.9734     0.0000    12.0000 </r>
       <r>   -32.7669     0.0000    12.0000 </r>
       <r>   -32.5604     0.0000    12.0000 </r>
       <r>   -32.3539     0.0000    12.0000 </r>
       <r>   -32.1474     0.0000    12.0000 </r>
       <r>   -31.9409     0.0000    12.0000 </r>
       <r>   -31.7344     0.0000    12.0000 </r>
       <r>   -31.5279     0.0000    12.0000 </r>
       <r>   -31.3214     0.0000    12.0000 </r>
       <r>   -31.1149     0.0000    12.0000 </r>
       <r>   -30.9084     0.0000    12.0000 </r>
       <r>   -30.7019     0.0000    12.0000 </r>
       <r>   -30.4954     0.0000    12.0000 </r>
       <r>   -30.2888     0.0000    12.0000 </r>
       <r>   -30.0823     0.0000    12.0000 </r>
       <r>   -29.8758     0.0000    12.0000 </r>
       <r>   -29.6693     0.0000    12.0000 </r>
       <r>   -29.4628     0.0000    12.0000 </r>
       <r>   -29.2563     0.0000    12.0000 </r>
       <r>   -29.0498     0.0000    12.0000 </r>
       <r>   -28.8433     0.0000    12.0000 </r>
       <r>   -28.6368     0.0000    12.0000 </r>
       <r>   -28.4303     0.0000    12.0000 </r>
       <r>   -28.2238     0.0000    12.0000 </r>
       <r>   -28.0173     0.0000    12.0000 </r>
       <r>   -27.8108     0.0000    12.0000 </r>
       <r>   -27.6043     0.0000    12.0000 </r>
       <r>   -27.3978     0.0000    12.0000 </r>
       <r>   -27.1913     0.0000    12.0000 </r>
       <r>   -26.9848     0.0000    12.0000 </r>
       <r>   -26.7783     0.0000    12.0000 </r>
       <r>   -26.5718     0.0000    12.0000 </r>
       <r>   -26.3653     0.0000    12.0000 </r>
       <r>   -26.1587     0.0000    12.0000 </r>
       <r>   -25.9522    -0.0000    12.0000 </r>
       <r>   -25.7457    -0.0000    12.0000 </r>
       <r>   -25.5392    -0.0000    12.0000 </r>
       <r>   -25.3327    -0.0000    12.0000 </r>
       <r>   -25.1262    -0.0000    12.0000 </r>
       <r>   -24.9197    -0.0000    12.0000 </r>
       <r>   -24.7132    -0.0029    11.9994 </r>
       <r>   -24.5067    -0.1158    11.9755 </r>
       <r>   -24.3002     0.0500    11.9858 </r>
       <r>   -24.0937     6.0341    13.2319 </r>
       <r>   -23.8872    13.3297    15.9845 </r>
       <r>   -23.6807    25.0572    21.1590 </r>
       <r>   -23.4742    53.1441    32.1335 </r>
       <r>   -23.2677    42.4470    40.8990 </r>
       <r>   -23.0612    19.7783    44.9833 </r>
       <r>   -22.8547    13.6745    47.8072 </r>
       <r>   -22.6482     1.2961    48.0748 </r>
       <r>   -22.4417    -0.3516    48.0022 </r>
       <r>   -22.2352    -0.0106    48.0000 </r>
       <r>   -22.0287    -0.0000    48.0000 </r>
       <r>   -21.8221    -0.0000    48.0000 </r>
       <r>   -21.6156    -0.0000    48.0000 </r>
       <r>   -21.4091     0.0000    48.0000 </r>
       <r>   -21.2026     0.0000    48.0000 </r>
       <r>   -20.9961     0.0000    48.0000 </r>
       <r>   -20.7896     0.0000    48.0000 </r>
       <r>   -20.5831     0.0000    48.0000 </r>
       <r>   -20.3766     0.0000    48.0000 </r>
       <r>   -20.1701     0.0000    48.0000 </r>
       <r>   -19.9636     0.0000    48.0000 </r>
       <r>   -19.7571     0.0000    48.0000 </r>
       <r>   -19.5506     0.0000    48.0000 </r>
       <r>   -19.3441     0.0000    48.0000 </r>
       <r>   -19.1376     0.0000    48.0000 </r>
       <r>   -18.9311     0.0000    48.0000 </r>
       <r>   -18.7246     0.0000    48.0000 </r>
       <r>   -18.5181     0.0000    48.0000 </r>
       <r>   -18.3116     0.0000    48.0000 </r>
       <r>   -18.1051     0.0000    48.0000 </r>
       <r>   -17.8986     0.0000    48.0000 </r>
       <r>   -17.6920     0.0000    48.0000 </r>
       <r>   -17.4855     0.0000    48.0000 </r>
       <r>   -17.2790     0.0000    48.0000 </r>
       <r>   -17.0725     0.0000    48.0000 </r>
       <r>   -16.8660     0.0000    48.0000 </r>
       <r>   -16.6595     0.0000    48.0000 </r>
       <r>   -16.4530     0.0000    48.0000 </r>
       <r>   -16.2465     0.0000    48.0000 </r>
       <r>   -16.0400     0.0000    48.0000 </r>
       <r>   -15.8335     0.0000    48.0000 </r>
       <r>   -15.6270     0.0000    48.0000 </r>
       <r>   -15.4205     0.0000    48.0000 </r>
       <r>   -15.2140     0.0000    48.0000 </r>
       <r>   -15.0075     0.0000    48.0000 </r>
       <r>   -14.8010     0.0000    48.0000 </r>
       <r>   -14.5945     0.0000    48.0000 </r>
       <r>   -14.3880     0.0000    48.0000 </r>
       <r>   -14.1815     0.0000    48.0000 </r>
       <r>   -13.9750     0.0000    48.0000 </r>
       <r>   -13.7685     0.0000    48.0000 </r>
       <r>   -13.5620     0.0000    48.0000 </r>
       <r>   -13.3554     0.0000    48.0000 </r>
       <r>   -13.1489     0.0000    48.0000 </r>
       <r>   -12.9424     0.0000    48.0000 </r>
       <r>   -12.7359     0.0000    48.0000 </r>
       <r>   -12.5294     0.0000    48.0000 </r>
       <r>   -12.3229     0.0000    48.0000 </r>
       <r>   -12.1164     0.0000    48.0000 </r>
       <r>   -11.9099     0.0000    48.0000 </r>
       <r>   -11.7034     0.0000    48.0000 </r>
       <r>   -11.4969     0.0000    48.0000 </r>
       <r>   -11.2904     0.0000    48.0000 </r>
       <r>   -11.0839     0.0000    48.0000 </r>
       <r>   -10.8774     0.0000    48.0000 </r>
       <r>   -10.6709     0.0000    48.0000 </r>
       <r>   -10.4644     0.0000    48.0000 </r>
       <r>   -10.2579     0.0000    48.0000 </r>
       <r>   -10.0514     0.0000    48.0000 </r>
       <r>    -9.8449     0.0000    48.0000 </r>
       <r>    -9.6384     0.0000    48.0000 </r>
       <r>    -9.4319     0.0000    48.0000 </r>
       <r>    -9.2254     0.0000    48.0000 </r>
       <r>    -9.0188     0.0000    48.0000 </r>
       <r>    -8.8123     0.0000    48.0000 </r>
       <r>    -8.6058     0.0000    48.0000 </r>
       <r>    -8.3993     0.0000    48.0000 </r>
       <r>    -8.1928     0.0000    48.0000 </r>
       <r>    -7.9863     0.0000    48.0000 </r>
       <r>    -7.7798     0.0000    48.0000 </r>
       <r>    -7.5733     0.0000    48.0000 </r>
       <r>    -7.3668     0.0000    48.0000 </r>
       <r>    -7.1603     0.0000    48.0000 </r>
       <r>    -6.9538     0.0000    48.0000 </r>
       <r>    -6.7473     0.0000    48.0000 </r>
       <r>    -6.5408     0.0000    48.0000 </r>
       <r>    -6.3343     0.0000    48.0000 </r>
       <r>    -6.1278     0.0000    48.0000 </r>
       <r>    -5.9213     0.0000    48.0000 </r>
       <r>    -5.7148     0.0000    48.0000 </r>
       <r>    -5.5083     0.0000    48.0000 </r>
       <r>    -5.3018     0.0000    48.0000 </r>
       <r>    -5.0953     0.0000    48.0000 </r>
       <r>    -4.8887     0.0000    48.0000 </r>
       <r>    -4.6822     0.0000    48.0000 </r>
       <r>    -4.4757     0.0000    48.0000 </r>
       <r>    -4.2692     0.0000    48.0000 </r>
       <r>    -4.0627     0.0000    48.0000 </r>
       <r>    -3.8562     0.0000    48.0000 </r>
       <r>    -3.6497     0.0000    48.0000 </r>
       <r>    -3.4432     0.0000    48.0000 </r>
       <r>    -3.2367     0.0000    48.0000 </r>
       <r>    -3.0302     0.0000    48.0000 </r>
       <r>    -2.8237     0.0000    48.0000 </r>
       <r>    -2.6172     0.0000    48.0000 </r>
       <r>    -2.4107     0.0000    48.0000 </r>
       <r>    -2.2042     0.0000    48.0000 </r>
       <r>    -1.9977     0.0000    48.0000 </r>
       <r>    -1.7912    -0.0000    48.0000 </r>
       <r>    -1.5847    -0.0000    48.0000 </r>
       <r>    -1.3782    -0.0000    48.0000 </r>
       <r>    -1.1717    -0.0000    48.0000 </r>
       <r>    -0.9652    -0.0000    48.0000 </r>
       <r>    -0.7587    -0.0000    48.0000 </r>
       <r>    -0.5521    -0.0004    47.9999 </r>
       <r>    -0.3456    -0.0103    47.9978 </r>
       <r>    -0.1391     0.0194    48.0018 </r>
       <r>     0.0674     0.5056    48.1062 </r>
       <r>     0.2739     1.1475    48.3432 </r>
       <r>     0.4804     1.4567    48.6440 </r>
       <r>     0.6869     2.0897    49.0755 </r>
       <r>     0.8934     2.0020    49.4890 </r>
       <r>     1.0999     2.5680    50.0193 </r>
       <r>     1.3064     3.0455    50.6482 </r>
       <r>     1.5129     3.0421    51.2764 </r>
       <r>     1.7194     3.5710    52.0138 </r>
       <r>     1.9259     4.3075    52.9033 </r>
       <r>     2.1324     5.1169    53.9600 </r>
       <r>     2.3389     5.8593    55.1700 </r>
       <r>     2.5454     9.4731    57.1262 </r>
       <r>     2.7519    14.4107    60.1021 </r>
       <r>     2.9584    20.5610    64.3480 </r>
       <r>     3.1649    25.6475    69.6444 </r>
       <r>     3.3714    29.4034    75.7163 </r>
       <r>     3.5779    30.8946    82.0962 </r>
       <r>     3.7845    31.8614    88.6757 </r>
       <r>     3.9910    31.4148    95.1630 </r>
       <r>     4.1975    30.8916   101.5423 </r>
       <r>     4.4040    29.2670   107.5861 </r>
       <r>     4.6105    27.9399   113.3558 </r>
       <r>     4.8170    29.1552   119.3765 </r>
       <r>     5.0235    34.4919   126.4992 </r>
       <r>     5.2300    40.6085   134.8851 </r>
       <r>     5.4365    41.9837   143.5549 </r>
       <r>     5.6430    41.9385   152.2155 </r>
       <r>     5.8495    40.4523   160.5691 </r>
       <r>     6.0560    41.7653   169.1938 </r>
       <r>     6.2625    44.8367   178.4528 </r>
       <r>     6.4690    43.2066   187.3752 </r>
       <r>     6.6755    38.4906   195.3237 </r>
       <r>     6.8820    33.9447   202.3334 </r>
       <r>     7.0885    27.2180   207.9541 </r>
       <r>     7.2950    21.9862   212.4943 </r>
       <r>     7.5015    19.8362   216.5906 </r>
       <r>     7.7080    19.2064   220.5568 </r>
       <r>     7.9146    19.4219   224.5675 </r>
       <r>     8.1211    21.8582   229.0813 </r>
       <r>     8.3276    24.6204   234.1656 </r>
       <r>     8.5341    19.2122   238.1330 </r>
       <r>     8.7406     8.4648   239.8810 </r>
       <r>     8.9471     0.7693   240.0399 </r>
       <r>     9.1536    -0.1812   240.0025 </r>
       <r>     9.3601    -0.0118   240.0000 </r>
       <r>     9.5666    -0.0001   240.0000 </r>
       <r>     9.7731    -0.0000   240.0000 </r>
       <r>     9.9796    -0.0000   240.0000 </r>
       <r>    10.1861    -0.0000   240.0000 </r>
       <r>    10.3926     0.0000   240.0000 </r>
       <r>    10.5991     0.0000   240.0000 </r>
       <r>    10.8056     0.0000   240.0000 </r>
       <r>    11.0121     0.0000   240.0000 </r>
       <r>    11.2186     0.0000   240.0000 </r>
       <r>    11.4251     0.0000   240.0000 </r>
       <r>    11.6316     0.0000   240.0000 </r>
      </set>
     </set>
    </array>
   </total>
  </dos>
 </calculation>
 <structure name="finalpos" >
  <crystal>
   <varray name="basis" >
    <v>      -3.18083391      -3.18416143      -3.17784042 </v>
    <v>       1.55575452       1.56473363      -7.88285593 </v>
    <v>       7.72928066      -7.75369915      -1.57208487 </v>
   </varray>
   <i name="volume">    465.22806369 </i>
   <varray name="rec_basis" >
    <v>      -0.13666671      -0.12570830      -0.05192532 </v>
    <v>       0.04220349       0.06354509      -0.10591473 </v>
    <v>       0.06464090      -0.06452318      -0.00005026 </v>
   </varray>
  </crystal>
  <varray name="positions" >
   <v>       0.94884456       0.93796938       0.39936150 </v>
   <v>       0.63175263       0.27242369       0.40278478 </v>
   <v>       0.49040121      -0.01309533       0.01595750 </v>
   <v>      -0.01256469       0.00323973       0.00227945 </v>
   <v>       0.09994199       0.20392307       0.79815335 </v>
   <v>       0.04091465       0.06692835       0.59746709 </v>
   <v>       0.91274640       0.79452323       0.20195627 </v>
   <v>       0.81179908       0.59460503       0.39615465 </v>
   <v>       0.72311082       0.48328436       0.19810024 </v>
   <v>       0.65883219       0.34594691      -0.00611669 </v>
   <v>       0.37126111       0.72300402       0.59838946 </v>
   <v>       0.13539973       0.27380538       0.39732284 </v>
   <v>       0.84163836       0.66074359       0.00275626 </v>
   <v>       0.92029882       0.87118343       0.80004711 </v>
   <v>       0.57629869       0.15117177       0.19605085 </v>
   <v>       0.43347506       0.85378299       0.80112582 </v>
   <v>       0.30687503       0.61094975       0.39035519 </v>
   <v>       0.85977804       0.72536835       0.59703584 </v>
   <v>       0.46792559       0.92384494       0.39848050 </v>
   <v>       0.17358623       0.33544325       0.00445987 </v>
   <v>       0.27245741       0.53021892       0.79291982 </v>
   <v>       0.20341419       0.38717977       0.59433529 </v>
   <v>       0.08217432       0.13491255       0.20834102 </v>
   <v>       0.76040402       0.51810546       0.80485908 </v>
   <v>       0.68222578       0.40924722       0.60236145 </v>
   <v>       0.59398781       0.20662769       0.79302184 </v>
   <v>       0.54552675       0.06722672       0.60936870 </v>
   <v>       0.33785495       0.65238824       0.00546840 </v>
   <v>       0.22963929       0.47504754       0.19720254 </v>
  </varray>
 </structure>
</modeling>
