Nb - Mo - Ta - Ti - V SQS               
           1
    -3.160000   -3.160000   -3.160000
     1.580000    1.580000   -7.900000
     7.900000   -7.900000   -1.580000
   Nb   Mo   Ta   Ti   V 
   6   6   5   6   6
Direct configuration=     1
   0.96666667  0.93333333  0.40000000
   0.63333333  0.26666667  0.40000000
   0.50000000  0.00000000  0.00000000
   0.00000000  0.00000000  0.00000000
   0.10000000  0.20000000  0.80000000
   0.03333333  0.06666667  0.60000000
   0.90000000  0.80000000  0.20000000
   0.80000000  0.60000000  0.40000000
   0.73333333  0.46666667  0.20000000
   0.66666667  0.33333333  0.00000000
   0.36666667  0.73333333  0.60000000
   0.13333333  0.26666667  0.40000000
   0.83333333  0.66666667  0.00000000
   0.93333333  0.86666667  0.80000000
   0.56666667  0.13333333  0.20000000
   0.43333333  0.86666667  0.80000000
   0.30000000  0.60000000  0.40000000
   0.86666667  0.73333333  0.60000000
   0.46666667  0.93333333  0.40000000
   0.16666667  0.33333333  0.00000000
   0.26666667  0.53333333  0.80000000
   0.20000000  0.40000000  0.60000000
   0.06666667  0.13333333  0.20000000
   0.76666667  0.53333333  0.80000000
   0.70000000  0.40000000  0.60000000
   0.60000000  0.20000000  0.80000000
   0.53333333  0.06666667  0.60000000
   0.33333333  0.66666667  0.00000000
   0.23333333  0.46666667  0.20000000
Nb - Mo - Ta - Ti - V SQS               
           1
    -3.123459   -3.120138   -3.126554
     1.546224    1.562957   -7.803768
     7.762647   -7.771775   -1.545846
   Nb   Mo   Ta   Ti   V 
   6   6   5   6   6
Direct configuration=     2
   0.96122233  0.93398204  0.39888228
   0.63213098  0.26648565  0.40123580
   0.49954707 -0.00142715  0.00183688
  -0.00256313  0.00069071  0.00080100
   0.09853539  0.20471373  0.79815130
   0.03483960  0.06844895  0.59797455
   0.90274076  0.79579070  0.20157314
   0.80570465  0.59491501  0.39862519
   0.73094522  0.47025784  0.19914187
   0.66345363  0.33786211 -0.00081901
   0.36995007  0.73012114  0.60009389
   0.13304971  0.27078762  0.39911319
   0.83609339  0.66318670  0.00225169
   0.92977482  0.86817884  0.80054380
   0.56846058  0.13647770  0.19743078
   0.43839953  0.86137089  0.79823546
   0.30033282  0.60361128  0.39787617
   0.86394015  0.73183411  0.59879404
   0.46822961  0.92968486  0.40148806
   0.16843926  0.33475885  0.00142451
   0.27075231  0.53323967  0.79867737
   0.20162914  0.39589125  0.60053366
   0.06699551  0.13343766  0.20173222
   0.76597285  0.52984969  0.80146338
   0.69495893  0.40376556  0.60119611
   0.59829158  0.20288417  0.79842948
   0.53509420  0.06835082  0.60194230
   0.33346506  0.66319747  0.00122510
   0.22961398  0.46765212  0.20014579
Nb - Mo - Ta - Ti - V SQS               
           1
    -3.130792   -3.128137   -3.133266
     1.553002    1.566378   -7.823080
     7.790211   -7.797507   -1.552700
   Nb   Mo   Ta   Ti   V 
   6   6   5   6   6
Direct configuration=     3
   0.96232801  0.93384988  0.39911051
   0.63237530  0.26652198  0.40098365
   0.49963885 -0.00113761  0.00146229
  -0.00204223  0.00054982  0.00063747
   0.09883418  0.20375598  0.79852767
   0.03453400  0.06808740  0.59838751
   0.90218294  0.79664613  0.20125285
   0.80454413  0.59594954  0.39890667
   0.73143132  0.46952790  0.19931634
   0.66410759  0.33694149 -0.00065269
   0.36928216  0.73077436  0.60007529
   0.13310862  0.26995023  0.39929330
   0.83553203  0.66389372  0.00179274
   0.93049811  0.86787095  0.80043262
   0.56809695  0.13583948  0.19795442
   0.43736852  0.86244830  0.79859656
   0.30026615  0.60287788  0.39830886
   0.86449312  0.73213885  0.59904064
   0.46791117  0.93042620  0.40118506
   0.16808002  0.33446893  0.00113336
   0.26992235  0.53325951  0.79894717
   0.20129693  0.39672640  0.60042557
   0.06692905  0.13341603  0.20137862
   0.76611277  0.53055728  0.80116548
   0.69598419  0.40299933  0.60095137
   0.59863928  0.20229818  0.79874948
   0.53473752  0.06800820  0.60154542
   0.33343729  0.66390228  0.00097580
   0.23036968  0.46745138  0.20011598
Nb - Mo - Ta - Ti - V SQS               
           1
    -3.146709   -3.141874   -3.151630
     1.548143    1.572707   -7.855638
     7.787433   -7.801737   -1.549412
   Nb   Mo   Ta   Ti   V 
   6   6   5   6   6
Direct configuration=     4
   0.95735685  0.93450576  0.39803454
   0.63102994  0.26657879  0.40206886
   0.49873737 -0.00307186  0.00345789
  -0.00385727  0.00120546  0.00128604
   0.09784588  0.20795738  0.79693251
   0.03605627  0.06967198  0.59655728
   0.90505580  0.79254879  0.20263234
   0.80923811  0.59170499  0.39779680
   0.72835463  0.47338679  0.19860046
   0.66087695  0.34145297 -0.00180800
   0.37263120  0.72738948  0.60004955
   0.13287702  0.27337408  0.39847889
   0.83788594  0.66110666  0.00382486
   0.92756435  0.86926298  0.80081304
   0.56911777  0.13880644  0.19594139
   0.44091863  0.85790823  0.79726326
   0.30141452  0.60623394  0.39584349
   0.86202350  0.73046468  0.59792484
   0.46917913  0.92680891  0.40227578
   0.16992322  0.33594225  0.00255352
   0.27413969  0.53291143  0.79755577
   0.20280907  0.39306142  0.60083259
   0.06821369  0.13319896  0.20300632
   0.76547560  0.52683251  0.80257861
   0.69074086  0.40666029  0.60246138
   0.59681346  0.20549986  0.79693554
   0.53672820  0.06964602  0.60357873
   0.33382781  0.66029953  0.00250338
   0.22702182  0.46865128  0.20002039
Nb - Mo - Ta - Ti - V SQS               
           1
    -3.157584   -3.151259   -3.164177
     1.544823    1.577031   -7.877881
     7.785535   -7.804627   -1.547166
   Nb   Mo   Ta   Ti   V 
   6   6   5   6   6
Direct configuration=     5
   0.95397705  0.93495301  0.39729934
   0.63011469  0.26661837  0.40281011
   0.49812556 -0.00438728  0.00482015
  -0.00509226  0.00165258  0.00172925
   0.09717026  0.21081677  0.79584474
   0.03709042  0.07074929  0.59530788
   0.90701263  0.78975961  0.20357300
   0.81243446  0.58881385  0.39703698
   0.72625914  0.47601405  0.19811299
   0.65867632  0.34452427 -0.00259535
   0.37491171  0.72508444  0.60003064
   0.13271630  0.27570439  0.39792417
   0.83948823  0.65920987  0.00521196
   0.92556814  0.87021153  0.80107331
   0.56980959  0.14082479  0.19456774
   0.44333776  0.85481613  0.79635054
   0.30219289  0.60851689  0.39416103
   0.86034690  0.72932517  0.59716154
   0.47004450  0.92434678  0.40301925
   0.17117400  0.33694538  0.00352458
   0.27700793  0.53267265  0.79660546
   0.20384084  0.39056643  0.60110900
   0.06908645  0.13305167  0.20411828
   0.76504572  0.52429790  0.80354210
   0.68717145  0.40915452  0.60349421
   0.59556964  0.20767886  0.79569775
   0.53807875  0.07076139  0.60496876
   0.33409642  0.65784775  0.00354522
   0.22474452  0.46946892  0.19995536
Nb - Mo - Ta - Ti - V SQS               
           1
    -3.167690   -3.161646   -3.171964
     1.550288    1.574913   -7.890504
     7.799252   -7.813789   -1.556290
   Nb   Mo   Ta   Ti   V 
   6   6   5   6   6
Direct configuration=     6
   0.95341278  0.93494117  0.39740702
   0.62978137  0.26765233  0.40231290
   0.49788605 -0.00571580  0.00508463
  -0.00539454  0.00186554  0.00128631
   0.09800125  0.20945257  0.79646416
   0.03771026  0.07038094  0.59554253
   0.90711540  0.78994702  0.20327776
   0.81140405  0.58997951  0.39739966
   0.72485228  0.47607880  0.19855340
   0.65879876  0.34469958 -0.00309191
   0.37446437  0.72464865  0.59953778
   0.13276724  0.27444562  0.39794398
   0.83902465  0.66092042  0.00468113
   0.92640473  0.87051551  0.80098066
   0.56980521  0.14150758  0.19512127
   0.44075533  0.85584051  0.79717969
   0.30377126  0.60800375  0.39367199
   0.86068632  0.72896266  0.59714330
   0.46964652  0.92405332  0.40272771
   0.17157268  0.33682977  0.00380660
   0.27724240  0.53258696  0.79633829
   0.20406135  0.39082251  0.60020978
   0.07027371  0.13313134  0.20423682
   0.76507662  0.52345796  0.80391013
   0.68608947  0.40948891  0.60393062
   0.59552500  0.20832634  0.79501791
   0.53939805  0.07053853  0.60555891
   0.33461535  0.65682019  0.00406285
   0.22525211  0.46981778  0.19970409
Nb - Mo - Ta - Ti - V SQS               
           1
    -3.175278   -3.169443   -3.177811
     1.554391    1.573322   -7.899981
     7.809550   -7.820668   -1.563140
   Nb   Mo   Ta   Ti   V 
   6   6   5   6   6
Direct configuration=     7
   0.95299046  0.93493210  0.39748777
   0.62953166  0.26842781  0.40193978
   0.49770702 -0.00671207  0.00528340
  -0.00562091  0.00202546  0.00095416
   0.09862352  0.20842952  0.79692902
   0.03817429  0.07010473  0.59571856
   0.90719223  0.79008776  0.20305634
   0.81063273  0.59085297  0.39767116
   0.72379937  0.47612675  0.19888357
   0.65889029  0.34483140 -0.00346424
   0.37412952  0.72432220  0.59916846
   0.13280554  0.27350189  0.39795929
   0.83867735  0.66220316  0.00428256
   0.92703084  0.87074365  0.80091108
   0.56980194  0.14201908  0.19553601
   0.43882248  0.85660740  0.79780096
   0.30495259  0.60761971  0.39330553
   0.86094040  0.72869096  0.59712976
   0.46934863  0.92383343  0.40250925
   0.17187115  0.33674298  0.00401807
   0.27741785  0.53252297  0.79613802
   0.20422619  0.39101520  0.59953555
   0.07116234  0.13319121  0.20432565
   0.76509992  0.52282797  0.80418635
   0.68527968  0.40973908  0.60425768
   0.59549137  0.20881226  0.79450801
   0.54038564  0.07037128  0.60600141
   0.33500398  0.65604954  0.00445129
   0.22563192  0.47007962  0.19951558
Nb - Mo - Ta - Ti - V SQS               
           1
    -3.173986   -3.168057   -3.174153
     1.553720    1.566840   -7.885069
     7.792570   -7.799652   -1.565098
   Nb   Mo   Ta   Ti   V 
   6   6   5   6   6
Direct configuration=     8
   0.95226052  0.93495612  0.39755404
   0.62939022  0.26920426  0.40163556
   0.49724592 -0.00769183  0.00576793
  -0.00620310  0.00224336  0.00065713
   0.09939597  0.20728239  0.79741114
   0.03886374  0.06971313  0.59592883
   0.90725887  0.79034918  0.20278396
   0.81022854  0.59170760  0.39786413
   0.72265151  0.47641027  0.19917278
   0.65906573  0.34504788 -0.00388138
   0.37362429  0.72399410  0.59882419
   0.13275490  0.27256772  0.39792371
   0.83850794  0.66324238  0.00390535
   0.92710383  0.87119824  0.80070617
   0.57007240  0.14276051  0.19585606
   0.43710513  0.85733071  0.79855216
   0.30598868  0.60732532  0.39282538
   0.86112150  0.72835329  0.59710951
   0.46894218  0.92353684  0.40225824
   0.17223142  0.33668682  0.00430724
   0.27765109  0.53246282  0.79582067
   0.20445932  0.39101481  0.59860982
   0.07224441  0.13334127  0.20456541
   0.76500221  0.52196314  0.80465384
   0.68425574  0.41008347  0.60456649
   0.59554697  0.20930390  0.79381830
   0.54169074  0.07020742  0.60656427
   0.33551675  0.65500241  0.00491159
   0.22602258  0.47040248  0.19932745
Nb - Mo - Ta - Ti - V SQS               
           1
    -3.173115   -3.167123   -3.171687
     1.553267    1.562471   -7.875017
     7.781124   -7.785485   -1.566417
   Nb   Mo   Ta   Ti   V 
   6   6   5   6   6
Direct configuration=     9
   0.95176820  0.93497218  0.39759882
   0.62929471  0.26972887  0.40142980
   0.49693508 -0.00835397  0.00609558
  -0.00659584  0.00239060  0.00045636
   0.09991714  0.20650741  0.79773721
   0.03932882  0.06944862  0.59607102
   0.90730375  0.79052592  0.20259984
   0.80995588  0.59228469  0.39799431
   0.72187734  0.47660143  0.19936814
   0.65918398  0.34519436 -0.00416330
   0.37328351  0.72377258  0.59859163
   0.13272082  0.27193674  0.39789991
   0.83839353  0.66394451  0.00365020
   0.92715300  0.87150542  0.80056760
   0.57025480  0.14326118  0.19607215
   0.43594688  0.85781858  0.79905960
   0.30668744  0.60712691  0.39250101
   0.86124368  0.72812524  0.59709592
   0.46866803  0.92333658  0.40208870
   0.17247446  0.33664878  0.00450265
   0.27780836  0.53242240  0.79560624
   0.20461642  0.39101510  0.59798426
   0.07297425  0.13344267  0.20472740
   0.76493647  0.52137871  0.80496996
   0.68356514  0.41031575  0.60477508
   0.59558431  0.20963638  0.79335212
   0.54257109  0.07009664  0.60694466
   0.33586276  0.65429495  0.00522290
   0.22628601  0.47062073  0.19920025
Nb - Mo - Ta - Ti - V SQS               
           1
    -3.174134   -3.167868   -3.171870
     1.553050    1.562689   -7.874608
     7.774756   -7.779057   -1.565887
   Nb   Mo   Ta   Ti   V 
   6   6   5   6   6
Direct configuration=    10
   0.95133299  0.93505593  0.39759025
   0.62953429  0.26960511  0.40165682
   0.49619961 -0.00828157  0.00676448
  -0.00704135  0.00248598  0.00061880
   0.10013129  0.20650350  0.79772893
   0.03968381  0.06926419  0.59611602
   0.90733881  0.79079908  0.20249580
   0.81046111  0.59226733  0.39790067
   0.72169475  0.47718796  0.19925403
   0.65931682  0.34530204 -0.00426326
   0.37300393  0.72380676  0.59868919
   0.13268726  0.27196774  0.39781638
   0.83874767  0.66339142  0.00368400
   0.92621349  0.87178975  0.80026283
   0.57069052  0.14357725  0.19587933
   0.43646622  0.85754819  0.79921936
   0.30630759  0.60752459  0.39220913
   0.86115902  0.72791644  0.59711226
   0.46848384  0.92320672  0.40196388
   0.17256720  0.33672648  0.00458343
   0.27773831  0.53236097  0.79537799
   0.20459452  0.39067035  0.59765820
   0.07345362  0.13346858  0.20499833
   0.76475618  0.52104209  0.80525266
   0.68331567  0.41038781  0.60471106
   0.59570046  0.20963672  0.79307401
   0.54306789  0.07011031  0.60712058
   0.33604848  0.65393669  0.00537606
   0.22634604  0.47074157  0.19914877
Nb - Mo - Ta - Ti - V SQS               
           1
    -3.177189   -3.170105   -3.172422
     1.552399    1.563342   -7.873379
     7.755651   -7.759774   -1.564296
   Nb   Mo   Ta   Ti   V 
   6   6   5   6   6
Direct configuration=    11
   0.95002767  0.93530709  0.39756448
   0.63025282  0.26923382  0.40233845
   0.49399367 -0.00806468  0.00877278
  -0.00837758  0.00277200  0.00110653
   0.10077360  0.20649179  0.79770407
   0.04074849  0.06871093  0.59625114
   0.90744399  0.79161863  0.20218345
   0.81197645  0.59221535  0.39761956
   0.72114715  0.47894762  0.19891147
   0.65971526  0.34562513 -0.00456334
   0.37216536  0.72390921  0.59898210
   0.13258661  0.27206078  0.39756561
   0.83980979  0.66173215  0.00378547
   0.92339569  0.87264262  0.79934775
   0.57199741  0.14452565  0.19530043
   0.43802383  0.85673709  0.79969906
   0.30516836  0.60871767  0.39133281
   0.86090509  0.72728997  0.59716128
   0.46793139  0.92281713  0.40158910
   0.17284535  0.33695961  0.00482598
   0.27752822  0.53217670  0.79469267
   0.20452885  0.38963614  0.59667918
   0.07489138  0.13354637  0.20581180
   0.76421541  0.52003210  0.80610142
   0.68256746  0.41060394  0.60451883
   0.59604883  0.20963782  0.79223898
   0.54455789  0.07015139  0.60764878
   0.33660548  0.65286186  0.00583592
   0.22652609  0.47110410  0.19899422
Nb - Mo - Ta - Ti - V SQS               
           1
    -3.183472   -3.177497   -3.178852
     1.555307    1.567451   -7.889640
     7.762798   -7.770138   -1.566990
   Nb   Mo   Ta   Ti   V 
   6   6   5   6   6
Direct configuration=    12
   0.94953723  0.93547676  0.39764695
   0.63033681  0.26933718  0.40252852
   0.49326182 -0.00836120  0.00970339
  -0.00890268  0.00275583  0.00126718
   0.10099983  0.20654127  0.79765814
   0.04112080  0.06859949  0.59624574
   0.90758015  0.79201980  0.20202395
   0.81200025  0.59216865  0.39747813
   0.72125887  0.47966458  0.19887204
   0.65977901  0.34561099 -0.00466738
   0.37201445  0.72398591  0.59908592
   0.13289461  0.27223115  0.39748376
   0.84002092  0.66144032  0.00368603
   0.92270963  0.87278105  0.79922272
   0.57261549  0.14510730  0.19526655
   0.43789740  0.85634474  0.79998463
   0.30496078  0.60926039  0.39098010
   0.86072896  0.72697746  0.59716380
   0.46777088  0.92269036  0.40130034
   0.17292214  0.33702836  0.00485678
   0.27702561  0.53212010  0.79439618
   0.20436082  0.38910579  0.59627916
   0.07566779  0.13355762  0.20623565
   0.76392959  0.51979219  0.80631238
   0.68253858  0.41048936  0.60425406
   0.59616754  0.20944874  0.79201355
   0.54513584  0.06996342  0.60788108
   0.33693413  0.65251623  0.00603389
   0.22673279  0.47134616  0.19880678
Nb - Mo - Ta - Ti - V SQS               
           1
    -3.182821   -3.176732   -3.178186
     1.555006    1.567026   -7.887956
     7.762058   -7.769064   -1.566711
   Nb   Mo   Ta   Ti   V 
   6   6   5   6   6
Direct configuration=    13
   0.94958792  0.93545923  0.39763841
   0.63032813  0.26932650  0.40250886
   0.49333750 -0.00833055  0.00960712
  -0.00884840  0.00275750  0.00125055
   0.10097644  0.20653616  0.79766290
   0.04108232  0.06861100  0.59624631
   0.90756607  0.79197834  0.20204045
   0.81199778  0.59217347  0.39749276
   0.72124732  0.47959048  0.19887611
   0.65977242  0.34561245 -0.00465662
   0.37203005  0.72397798  0.59907518
   0.13286277  0.27221354  0.39749223
   0.83999910  0.66147048  0.00369632
   0.92278052  0.87276675  0.79923565
   0.57255161  0.14504718  0.19527005
   0.43791048  0.85638529  0.79995509
   0.30498221  0.60920430  0.39101658
   0.86074716  0.72700976  0.59716354
   0.46778745  0.92270347  0.40133021
   0.17291420  0.33702125  0.00485359
   0.27707754  0.53212595  0.79442685
   0.20437817  0.38916061  0.59632055
   0.07558757  0.13355645  0.20619181
   0.76395914  0.51981699  0.80629055
   0.68254155  0.41050121  0.60428145
   0.59615526  0.20946829  0.79203687
   0.54507612  0.06998284  0.60785705
   0.33690017  0.65255194  0.00601341
   0.22671142  0.47132114  0.19882617
Nb - Mo - Ta - Ti - V SQS               
           1
    -3.182566   -3.177690   -3.178646
     1.554881    1.567913   -7.889510
     7.757280   -7.767524   -1.566658
   Nb   Mo   Ta   Ti   V 
   6   6   5   6   6
Direct configuration=    14
   0.94923544  0.93559761  0.39777369
   0.63026173  0.26968395  0.40251380
   0.49304495 -0.00889698  0.01028054
  -0.00928627  0.00267278  0.00128977
   0.10110710  0.20648122  0.79763441
   0.04130534  0.06859419  0.59623029
   0.90777076  0.79222217  0.20194158
   0.81162004  0.59218519  0.39735338
   0.72159195  0.47998509  0.19894587
   0.65970411  0.34554837 -0.00471059
   0.37206676  0.72400018  0.59908733
   0.13324857  0.27244349  0.39746127
   0.83997376  0.66167697  0.00354008
   0.92272909  0.87270319  0.79937978
   0.57303700  0.14571200  0.19541250
   0.43713283  0.85613546  0.80023951
   0.30509852  0.60949698  0.39080538
   0.86060777  0.72675468  0.59712824
   0.46775136  0.92265683  0.40103752
   0.17295741  0.33703085  0.00483726
   0.27646584  0.53208747  0.79421202
   0.20420019  0.38876192  0.59599628
   0.07626649  0.13361690  0.20654111
   0.76365530  0.51974724  0.80631897
   0.68266607  0.41029148  0.60396097
   0.59619402  0.20920217  0.79197518
   0.54544642  0.06967256  0.60806237
   0.33719629  0.65233568  0.00613539
   0.22695114  0.47160035  0.19861611
Nb - Mo - Ta - Ti - V SQS               
           1
    -3.181802   -3.180566   -3.180025
     1.554505    1.570575   -7.894173
     7.742947   -7.762901   -1.566500
   Nb   Mo   Ta   Ti   V 
   6   6   5   6   6
Direct configuration=    15
   0.94817794  0.93601272  0.39817979
   0.63006255  0.27075607  0.40252870
   0.49216646 -0.01059567  0.01230160
  -0.01059977  0.00241869  0.00140754
   0.10149907  0.20631642  0.79754888
   0.04197436  0.06854375  0.59618216
   0.90838489  0.79295347  0.20164485
   0.81048714  0.59222028  0.39693517
   0.72262565  0.48116870  0.19915525
   0.65949927  0.34535617 -0.00487257
   0.37217687  0.72406677  0.59912380
   0.13440589  0.27313319  0.39736829
   0.83989798  0.66229624  0.00307122
   0.92257461  0.87251263  0.79981234
   0.57449283  0.14770605  0.19584002
   0.43479975  0.85538622  0.80109326
   0.30544771  0.61037477  0.39017154
   0.86018968  0.72598959  0.59702228
   0.46764351  0.92251685  0.40015907
   0.17308705  0.33705965  0.00478825
   0.27463125  0.53197199  0.79356742
   0.20366673  0.38756602  0.59502304
   0.07830256  0.13379832  0.20758930
   0.76274386  0.51953803  0.80640434
   0.68304003  0.40966232  0.60299906
   0.59631036  0.20840398  0.79178998
   0.54655688  0.06874201  0.60867841
   0.33808436  0.65168707  0.00650136
   0.22767054  0.47243770  0.19798567
Nb - Mo - Ta - Ti - V SQS               
           1
    -3.178167   -3.177403   -3.176157
     1.553846    1.568010   -7.884685
     7.733184   -7.752510   -1.566348
   Nb   Mo   Ta   Ti   V 
   6   6   5   6   6
Direct configuration=    16
   0.94795078  0.93621797  0.39842515
   0.63079285  0.27107368  0.40263045
   0.49134143 -0.01125338  0.01320944
  -0.01075174  0.00262815  0.00157945
   0.10137323  0.20591221  0.79770359
   0.04199046  0.06834821  0.59635896
   0.90904561  0.79314708  0.20174867
   0.81079380  0.59296735  0.39676492
   0.72312043  0.48154398  0.19894473
   0.65944201  0.34559186 -0.00511844
   0.37199160  0.72402230  0.59891887
   0.13426601  0.27326795  0.39726066
   0.84013546  0.66218415  0.00294998
   0.92167476  0.87225521  0.79983973
   0.57479439  0.14866511  0.19606914
   0.43476605  0.85499219  0.80142842
   0.30505221  0.61060578  0.39004538
   0.86008122  0.72573551  0.59701676
   0.46767072  0.92261533  0.39969631
   0.17305854  0.33690864  0.00471956
   0.27384054  0.53173413  0.79339272
   0.20354040  0.38739351  0.59459286
   0.07959563  0.13394754  0.20790857
   0.76206132  0.51936573  0.80627939
   0.68307384  0.40934440  0.60259247
   0.59620399  0.20794560  0.79189939
   0.54676293  0.06821085  0.60890401
   0.33823563  0.65154380  0.00648549
   0.22809591  0.47308515  0.19775336
Nb - Mo - Ta - Ti - V SQS               
           1
    -3.178397   -3.177603   -3.176402
     1.553888    1.568172   -7.885286
     7.733802   -7.753169   -1.566358
   Nb   Mo   Ta   Ti   V 
   6   6   5   6   6
Direct configuration=    17
   0.94796519  0.93620495  0.39840959
   0.63074652  0.27105353  0.40262400
   0.49139377 -0.01121164  0.01315183
  -0.01074210  0.00261486  0.00156855
   0.10138121  0.20593785  0.79769377
   0.04198944  0.06836062  0.59634774
   0.90900369  0.79313480  0.20174208
   0.81077434  0.59291995  0.39677573
   0.72308905  0.48152017  0.19895809
   0.65944564  0.34557691 -0.00510284
   0.37200335  0.72402512  0.59893187
   0.13427489  0.27325940  0.39726749
   0.84012040  0.66219126  0.00295767
   0.92173184  0.87227155  0.79983799
   0.57477526  0.14860426  0.19605461
   0.43476819  0.85501719  0.80140715
   0.30507730  0.61059113  0.39005339
   0.86008810  0.72575163  0.59701711
   0.46766899  0.92260907  0.39972567
   0.17306035  0.33691822  0.00472391
   0.27389070  0.53174922  0.79340380
   0.20354842  0.38740444  0.59462015
   0.07951360  0.13393807  0.20788831
   0.76210462  0.51937666  0.80628732
   0.68307170  0.40936457  0.60261827
   0.59621074  0.20797468  0.79189244
   0.54674986  0.06824455  0.60888969
   0.33822603  0.65155288  0.00648650
   0.22806892  0.47304407  0.19776811
Nb - Mo - Ta - Ti - V SQS               
           1
    -3.180035   -3.179175   -3.177436
     1.555304    1.567914   -7.887435
     7.737418   -7.755354   -1.568149
   Nb   Mo   Ta   Ti   V 
   6   6   5   6   6
Direct configuration=    18
   0.94797420  0.93642109  0.39859891
   0.63141693  0.27125933  0.40273109
   0.49071625 -0.01159233  0.01382709
  -0.01077744  0.00287567  0.00175337
   0.10117073  0.20555947  0.79785886
   0.04188434  0.06813146  0.59656692
   0.90964738  0.79329984  0.20186741
   0.81117809  0.59363318  0.39667888
   0.72336273  0.48178191  0.19869729
   0.65943219  0.34579579 -0.00534437
   0.37179516  0.72392164  0.59873148
   0.13407277  0.27327381  0.39717111
   0.84039259  0.66190235  0.00290452
   0.92101940  0.87203869  0.79979419
   0.57486919  0.14921106  0.19617655
   0.43499258  0.85469427  0.80158217
   0.30476544  0.61069717  0.38999919
   0.86006687  0.72558553  0.59705319
   0.46767637  0.92276411  0.39936328
   0.17301128  0.33672133  0.00466995
   0.27339331  0.53148656  0.79331575
   0.20348994  0.38744875  0.59437251
   0.08047708  0.13404421  0.20802867
   0.76157330  0.51921352  0.80610325
   0.68301575  0.40915712  0.60238783
   0.59601102  0.20765716  0.79206705
   0.54673433  0.06787364  0.60901237
   0.33821297  0.65158283  0.00639356
   0.22842525  0.47356084  0.19763794
Nb - Mo - Ta - Ti - V SQS               
           1
    -3.181356   -3.180442   -3.178269
     1.556446    1.567706   -7.889166
     7.740333   -7.757115   -1.569593
   Nb   Mo   Ta   Ti   V 
   6   6   5   6   6
Direct configuration=    19
   0.94798149  0.93659527  0.39875146
   0.63195717  0.27142521  0.40281738
   0.49017034 -0.01189930  0.01437131
  -0.01080589  0.00308584  0.00190230
   0.10100113  0.20525446  0.79799194
   0.04179966  0.06794673  0.59674358
   0.91016609  0.79343287  0.20196840
   0.81150347  0.59420806  0.39660078
   0.72358325  0.48199293  0.19848709
   0.65942134  0.34597224 -0.00553905
   0.37162738  0.72383825  0.59856999
   0.13390990  0.27328543  0.39709345
   0.84061191  0.66166951  0.00286172
   0.92044528  0.87185098  0.79975891
   0.57494492  0.14970011  0.19627477
   0.43517340  0.85443398  0.80172324
   0.30451414  0.61078263  0.38995550
   0.86004976  0.72545164  0.59708228
   0.46768229  0.92288913  0.39907120
   0.17297172  0.33656264  0.00462648
   0.27299248  0.53127485  0.79324480
   0.20344278  0.38748451  0.59417293
   0.08125349  0.13412979  0.20814178
   0.76114512  0.51908204  0.80595492
   0.68297064  0.40898996  0.60220214
   0.59585008  0.20740120  0.79220779
   0.54672182  0.06757468  0.60911127
   0.33820244  0.65160697  0.00631865
   0.22871240  0.47397739  0.19753299
Nb - Mo - Ta - Ti - V SQS               
           1
    -3.181836   -3.181663   -3.178765
     1.556604    1.567512   -7.889522
     7.739943   -7.758091   -1.570281
   Nb   Mo   Ta   Ti   V 
   6   6   5   6   6
Direct configuration=    20
   0.94810899  0.93681335  0.39884503
   0.63191707  0.27158142  0.40281234
   0.49021330 -0.01204908  0.01462279
  -0.01108641  0.00313472  0.00197195
   0.10085801  0.20505889  0.79802447
   0.04167810  0.06776200  0.59687736
   0.91052856  0.79359587  0.20195585
   0.81149256  0.59427157  0.39654346
   0.72351411  0.48217192  0.19841848
   0.65934594  0.34596264 -0.00562088
   0.37156608  0.72370362  0.59853841
   0.13416481  0.27334675  0.39712288
   0.84077496  0.66151036  0.00286023
   0.92047463  0.87177908  0.79977836
   0.57512897  0.14992348  0.19622582
   0.43484911  0.85434438  0.80162542
   0.30487893  0.61078791  0.39001255
   0.86002391  0.72543693  0.59708757
   0.46768328  0.92302100  0.39898514
   0.17305150  0.33641060  0.00459965
   0.27291683  0.53112099  0.79319320
   0.20345946  0.38744697  0.59418813
   0.08141094  0.13422453  0.20816039
   0.76102865  0.51895006  0.80580028
   0.68285852  0.40902572  0.60221440
   0.59559002  0.20728839  0.79232464
   0.54656835  0.06752321  0.60914508
   0.33814761  0.65172212  0.00620180
   0.22885323  0.47413060  0.19748522
Nb - Mo - Ta - Ti - V SQS               
           1
    -3.183276   -3.185326   -3.180250
     1.557078    1.566930   -7.890589
     7.738772   -7.761019   -1.572345
   Nb   Mo   Ta   Ti   V 
   6   6   5   6   6
Direct configuration=    21
   0.94849132  0.93746760  0.39912569
   0.63179679  0.27205002  0.40279724
   0.49034199 -0.01249841  0.01537721
  -0.01192782  0.00328133  0.00218094
   0.10042877  0.20447216  0.79812206
   0.04131342  0.06720780  0.59727872
   0.91161571  0.79408489  0.20191812
   0.81145988  0.59446209  0.39637151
   0.72330678  0.48270887  0.19821267
   0.65911986  0.34593383 -0.00586637
   0.37138225  0.72329974  0.59844367
   0.13492933  0.27353072  0.39721114
   0.84126400  0.66103298  0.00285574
   0.92056262  0.87156338  0.79983670
   0.57568099  0.15059359  0.19607893
   0.43387655  0.85407556  0.80133201
   0.30597300  0.61080380  0.39018366
   0.85994638  0.72539280  0.59710347
   0.46768628  0.92341659  0.39872694
   0.17329079  0.33595450  0.00451917
   0.27268996  0.53065940  0.79303842
   0.20350946  0.38733439  0.59423374
   0.08188315  0.13450876  0.20821618
   0.76067943  0.51855414  0.80533640
   0.68252223  0.40913299  0.60225119
   0.59480995  0.20694993  0.79267520
   0.54610804  0.06736878  0.60924653
   0.33798322  0.65206755  0.00585125
   0.22927566  0.47459023  0.19734188
Nb - Mo - Ta - Ti - V SQS               
           1
    -3.182663   -3.185034   -3.179645
     1.556746    1.566378   -7.888649
     7.736390   -7.759182   -1.572280
   Nb   Mo   Ta   Ti   V 
   6   6   5   6   6
Direct configuration=    22
   0.94857996  0.93759351  0.39918486
   0.63178571  0.27214378  0.40279411
   0.49035686 -0.01264819  0.01552281
  -0.01208763  0.00327089  0.00220565
   0.10030662  0.20433438  0.79812991
   0.04121335  0.06713768  0.59732598
   0.91189944  0.79419487  0.20192770
   0.81154499  0.59449795  0.39631710
   0.72325760  0.48285327  0.19818446
   0.65904767  0.34593711 -0.00592918
   0.37135185  0.72322554  0.59843007
   0.13504737  0.27359963  0.39723917
   0.84135794  0.66096036  0.00283078
   0.92049643  0.87146805  0.79988950
   0.57583600  0.15073866  0.19607189
   0.43377580  0.85400215  0.80128027
   0.30619935  0.61084042  0.39022670
   0.85990414  0.72538667  0.59708650
   0.46774633  0.92352407  0.39866511
   0.17336493  0.33582622  0.00450429
   0.27263160  0.53054888  0.79300866
   0.20348556  0.38729559  0.59425922
   0.08195622  0.13461007  0.20824750
   0.76061031  0.51844156  0.80521663
   0.68244784  0.40916165  0.60227885
   0.59460365  0.20686908  0.79276217
   0.54596217  0.06733314  0.60927718
   0.33795103  0.65214802  0.00575519
   0.22936690  0.47470498  0.19730692
Nb - Mo - Ta - Ti - V SQS               
           1
    -3.180834   -3.184161   -3.177840
     1.555755    1.564734   -7.882856
     7.729281   -7.753699   -1.572085
   Nb   Mo   Ta   Ti   V 
   6   6   5   6   6
Direct configuration=    23
   0.94884456  0.93796938  0.39936150
   0.63175263  0.27242369  0.40278478
   0.49040121 -0.01309533  0.01595750
  -0.01256469  0.00323973  0.00227945