  30  30   0   0
  0.1623088E+02  0.6380000E-09  0.8287863E-09  0.1008767E-08  0.5000000E-15
  1.000000000000000E-004
  CAR 
 Nb - Mo - Ta - Ti - W SQS               
     12.27441777    -49.91746479  301      6.90180578      1.00000000
    -49.917  0.0000E+00  0.0000E+00
    -49.710  0.0000E+00  0.0000E+00
    -49.503  0.0000E+00  0.0000E+00
    -49.296  0.0000E+00  0.0000E+00
    -49.088  0.0000E+00  0.0000E+00
    -48.881 -0.5064E-33 -0.1050E-33
    -48.674 -0.1854E-25 -0.3844E-26
    -48.466 -0.7751E-19 -0.1607E-19
    -48.259 -0.3615E-13 -0.7494E-14
    -48.052 -0.1958E-08 -0.4059E-09
    -47.844 -0.1188E-04 -0.2462E-05
    -47.637 -0.7778E-02 -0.1615E-02
    -47.430 -0.4787E+00 -0.1009E+00
    -47.222  0.4157E+00 -0.1469E-01
    -47.015  0.2722E+02  0.5627E+01
    -46.808  0.2925E+02  0.1169E+02
    -46.601  0.2133E+01  0.1213E+02
    -46.393 -0.6236E+00  0.1200E+02
    -46.186 -0.1991E-01  0.1200E+02
    -45.979 -0.5982E-04  0.1200E+02
    -45.771 -0.1967E-07  0.1200E+02
    -45.564 -0.7272E-12  0.1200E+02
    -45.357  0.0000E+00  0.1200E+02
    -45.149  0.0000E+00  0.1200E+02
    -44.942  0.0000E+00  0.1200E+02
    -44.735  0.0000E+00  0.1200E+02
    -44.528  0.0000E+00  0.1200E+02
    -44.320  0.0000E+00  0.1200E+02
    -44.113  0.0000E+00  0.1200E+02
    -43.906  0.0000E+00  0.1200E+02
    -43.698  0.0000E+00  0.1200E+02
    -43.491  0.0000E+00  0.1200E+02
    -43.284  0.0000E+00  0.1200E+02
    -43.076  0.0000E+00  0.1200E+02
    -42.869  0.0000E+00  0.1200E+02
    -42.662  0.0000E+00  0.1200E+02
    -42.454  0.0000E+00  0.1200E+02
    -42.247  0.0000E+00  0.1200E+02
    -42.040  0.0000E+00  0.1200E+02
    -41.833  0.0000E+00  0.1200E+02
    -41.625  0.0000E+00  0.1200E+02
    -41.418  0.0000E+00  0.1200E+02
    -41.211  0.0000E+00  0.1200E+02
    -41.003  0.0000E+00  0.1200E+02
    -40.796  0.0000E+00  0.1200E+02
    -40.589  0.0000E+00  0.1200E+02
    -40.381  0.0000E+00  0.1200E+02
    -40.174  0.0000E+00  0.1200E+02
    -39.967  0.0000E+00  0.1200E+02
    -39.759  0.0000E+00  0.1200E+02
    -39.552  0.0000E+00  0.1200E+02
    -39.345  0.0000E+00  0.1200E+02
    -39.138  0.0000E+00  0.1200E+02
    -38.930  0.0000E+00  0.1200E+02
    -38.723  0.0000E+00  0.1200E+02
    -38.516  0.0000E+00  0.1200E+02
    -38.308  0.0000E+00  0.1200E+02
    -38.101  0.0000E+00  0.1200E+02
    -37.894  0.0000E+00  0.1200E+02
    -37.686  0.0000E+00  0.1200E+02
    -37.479  0.0000E+00  0.1200E+02
    -37.272  0.0000E+00  0.1200E+02
    -37.064  0.0000E+00  0.1200E+02
    -36.857  0.0000E+00  0.1200E+02
    -36.650  0.0000E+00  0.1200E+02
    -36.443  0.0000E+00  0.1200E+02
    -36.235  0.0000E+00  0.1200E+02
    -36.028  0.0000E+00  0.1200E+02
    -35.821  0.0000E+00  0.1200E+02
    -35.613  0.0000E+00  0.1200E+02
    -35.406  0.0000E+00  0.1200E+02
    -35.199  0.0000E+00  0.1200E+02
    -34.991  0.0000E+00  0.1200E+02
    -34.784  0.0000E+00  0.1200E+02
    -34.577  0.0000E+00  0.1200E+02
    -34.369  0.0000E+00  0.1200E+02
    -34.162  0.0000E+00  0.1200E+02
    -33.955  0.0000E+00  0.1200E+02
    -33.748  0.0000E+00  0.1200E+02
    -33.540  0.0000E+00  0.1200E+02
    -33.333  0.0000E+00  0.1200E+02
    -33.126  0.0000E+00  0.1200E+02
    -32.918  0.0000E+00  0.1200E+02
    -32.711  0.0000E+00  0.1200E+02
    -32.504  0.0000E+00  0.1200E+02
    -32.296  0.0000E+00  0.1200E+02
    -32.089  0.0000E+00  0.1200E+02
    -31.882  0.0000E+00  0.1200E+02
    -31.675  0.0000E+00  0.1200E+02
    -31.467  0.0000E+00  0.1200E+02
    -31.260  0.0000E+00  0.1200E+02
    -31.053  0.0000E+00  0.1200E+02
    -30.845  0.0000E+00  0.1200E+02
    -30.638  0.0000E+00  0.1200E+02
    -30.431  0.0000E+00  0.1200E+02
    -30.223  0.0000E+00  0.1200E+02
    -30.016  0.0000E+00  0.1200E+02
    -29.809  0.0000E+00  0.1200E+02
    -29.601  0.0000E+00  0.1200E+02
    -29.394  0.0000E+00  0.1200E+02
    -29.187  0.0000E+00  0.1200E+02
    -28.980  0.0000E+00  0.1200E+02
    -28.772  0.0000E+00  0.1200E+02
    -28.565  0.0000E+00  0.1200E+02
    -28.358  0.0000E+00  0.1200E+02
    -28.150  0.0000E+00  0.1200E+02
    -27.943  0.0000E+00  0.1200E+02
    -27.736  0.0000E+00  0.1200E+02
    -27.528  0.0000E+00  0.1200E+02
    -27.321  0.0000E+00  0.1200E+02
    -27.114  0.0000E+00  0.1200E+02
    -26.906  0.0000E+00  0.1200E+02
    -26.699  0.0000E+00  0.1200E+02
    -26.492  0.0000E+00  0.1200E+02
    -26.285  0.0000E+00  0.1200E+02
    -26.077  0.0000E+00  0.1200E+02
    -25.870  0.0000E+00  0.1200E+02
    -25.663  0.0000E+00  0.1200E+02
    -25.455 -0.2114E-33  0.1200E+02
    -25.248 -0.7872E-26  0.1200E+02
    -25.041 -0.3361E-19  0.1200E+02
    -24.833 -0.1589E-13  0.1200E+02
    -24.626 -0.8766E-09  0.1200E+02
    -24.419 -0.5392E-05  0.1200E+02
    -24.211 -0.3614E-02  0.1200E+02
    -24.004 -0.2362E+00  0.1195E+02
    -23.797 -0.7357E-01  0.1194E+02
    -23.590  0.1333E+02  0.1470E+02
    -23.382  0.2424E+02  0.1972E+02
    -23.175  0.5523E+02  0.3117E+02
    -22.968  0.4880E+02  0.4129E+02
    -22.760  0.2409E+02  0.4628E+02
    -22.553  0.8508E+01  0.4805E+02
    -22.346 -0.5910E-01  0.4804E+02
    -22.138 -0.1671E+00  0.4800E+02
    -21.931 -0.2726E-02  0.4800E+02
    -21.724 -0.4076E-05  0.4800E+02
    -21.517 -0.6416E-09  0.4800E+02
    -21.309 -0.1078E-13  0.4800E+02
    -21.102  0.0000E+00  0.4800E+02
    -20.895  0.0000E+00  0.4800E+02
    -20.687  0.0000E+00  0.4800E+02
    -20.480  0.0000E+00  0.4800E+02
    -20.273  0.0000E+00  0.4800E+02
    -20.065  0.0000E+00  0.4800E+02
    -19.858  0.0000E+00  0.4800E+02
    -19.651  0.0000E+00  0.4800E+02
    -19.443  0.0000E+00  0.4800E+02
    -19.236  0.0000E+00  0.4800E+02
    -19.029  0.0000E+00  0.4800E+02
    -18.822  0.0000E+00  0.4800E+02
    -18.614  0.0000E+00  0.4800E+02
    -18.407  0.0000E+00  0.4800E+02
    -18.200  0.0000E+00  0.4800E+02
    -17.992  0.0000E+00  0.4800E+02
    -17.785  0.0000E+00  0.4800E+02
    -17.578  0.0000E+00  0.4800E+02
    -17.370  0.0000E+00  0.4800E+02
    -17.163  0.0000E+00  0.4800E+02
    -16.956  0.0000E+00  0.4800E+02
    -16.748  0.0000E+00  0.4800E+02
    -16.541  0.0000E+00  0.4800E+02
    -16.334  0.0000E+00  0.4800E+02
    -16.127  0.0000E+00  0.4800E+02
    -15.919  0.0000E+00  0.4800E+02
    -15.712  0.0000E+00  0.4800E+02
    -15.505  0.0000E+00  0.4800E+02
    -15.297  0.0000E+00  0.4800E+02
    -15.090  0.0000E+00  0.4800E+02
    -14.883  0.0000E+00  0.4800E+02
    -14.675  0.0000E+00  0.4800E+02
    -14.468  0.0000E+00  0.4800E+02
    -14.261  0.0000E+00  0.4800E+02
    -14.053  0.0000E+00  0.4800E+02
    -13.846  0.0000E+00  0.4800E+02
    -13.639  0.0000E+00  0.4800E+02
    -13.432  0.0000E+00  0.4800E+02
    -13.224  0.0000E+00  0.4800E+02
    -13.017  0.0000E+00  0.4800E+02
    -12.810  0.0000E+00  0.4800E+02
    -12.602  0.0000E+00  0.4800E+02
    -12.395  0.0000E+00  0.4800E+02
    -12.188  0.0000E+00  0.4800E+02
    -11.980  0.0000E+00  0.4800E+02
    -11.773  0.0000E+00  0.4800E+02
    -11.566  0.0000E+00  0.4800E+02
    -11.358  0.0000E+00  0.4800E+02
    -11.151  0.0000E+00  0.4800E+02
    -10.944  0.0000E+00  0.4800E+02
    -10.737  0.0000E+00  0.4800E+02
    -10.529  0.0000E+00  0.4800E+02
    -10.322  0.0000E+00  0.4800E+02
    -10.115  0.0000E+00  0.4800E+02
     -9.907  0.0000E+00  0.4800E+02
     -9.700  0.0000E+00  0.4800E+02
     -9.493  0.0000E+00  0.4800E+02
     -9.285  0.0000E+00  0.4800E+02
     -9.078  0.0000E+00  0.4800E+02
     -8.871  0.0000E+00  0.4800E+02
     -8.664  0.0000E+00  0.4800E+02
     -8.456  0.0000E+00  0.4800E+02
     -8.249  0.0000E+00  0.4800E+02
     -8.042  0.0000E+00  0.4800E+02
     -7.834  0.0000E+00  0.4800E+02
     -7.627  0.0000E+00  0.4800E+02
     -7.420  0.0000E+00  0.4800E+02
     -7.212  0.0000E+00  0.4800E+02
     -7.005  0.0000E+00  0.4800E+02
     -6.798  0.0000E+00  0.4800E+02
     -6.590  0.0000E+00  0.4800E+02
     -6.383  0.0000E+00  0.4800E+02
     -6.176  0.0000E+00  0.4800E+02
     -5.969  0.0000E+00  0.4800E+02
     -5.761  0.0000E+00  0.4800E+02
     -5.554  0.0000E+00  0.4800E+02
     -5.347  0.0000E+00  0.4800E+02
     -5.139  0.0000E+00  0.4800E+02
     -4.932  0.0000E+00  0.4800E+02
     -4.725  0.0000E+00  0.4800E+02
     -4.517  0.0000E+00  0.4800E+02
     -4.310  0.0000E+00  0.4800E+02
     -4.103  0.0000E+00  0.4800E+02
     -3.895  0.0000E+00  0.4800E+02
     -3.688  0.0000E+00  0.4800E+02
     -3.481  0.0000E+00  0.4800E+02
     -3.274  0.0000E+00  0.4800E+02
     -3.066  0.0000E+00  0.4800E+02
     -2.859  0.0000E+00  0.4800E+02
     -2.652  0.0000E+00  0.4800E+02
     -2.444  0.0000E+00  0.4800E+02
     -2.237 -0.3941E-35  0.4800E+02
     -2.030 -0.1327E-27  0.4800E+02
     -1.822 -0.5126E-21  0.4800E+02
     -1.615 -0.2179E-15  0.4800E+02
     -1.408 -0.1092E-10  0.4800E+02
     -1.200 -0.6114E-07  0.4800E+02
     -0.993 -0.3860E-04  0.4800E+02
     -0.786 -0.2731E-02  0.4800E+02
     -0.579 -0.1405E-01  0.4800E+02
     -0.371  0.1693E+00  0.4803E+02
     -0.164  0.8476E+00  0.4821E+02
      0.043  0.1538E+01  0.4853E+02
      0.251  0.1613E+01  0.4886E+02
      0.458  0.1759E+01  0.4923E+02
      0.665  0.2283E+01  0.4970E+02
      0.873  0.2664E+01  0.5025E+02
      1.080  0.2912E+01  0.5085E+02
      1.287  0.3056E+01  0.5149E+02
      1.494  0.4373E+01  0.5239E+02
      1.702  0.4717E+01  0.5337E+02
      1.909  0.3661E+01  0.5413E+02
      2.116  0.5194E+01  0.5521E+02
      2.324  0.7844E+01  0.5683E+02
      2.531  0.1293E+02  0.5952E+02
      2.738  0.1664E+02  0.6296E+02
      2.946  0.2087E+02  0.6729E+02
      3.153  0.2359E+02  0.7218E+02
      3.360  0.2682E+02  0.7774E+02
      3.568  0.3138E+02  0.8425E+02
      3.775  0.3299E+02  0.9108E+02
      3.982  0.3199E+02  0.9772E+02
      4.189  0.3214E+02  0.1044E+03
      4.397  0.2529E+02  0.1096E+03
      4.604  0.1872E+02  0.1135E+03
      4.811  0.2809E+02  0.1193E+03
      5.019  0.4088E+02  0.1278E+03
      5.226  0.4618E+02  0.1374E+03
      5.433  0.4276E+02  0.1462E+03
      5.641  0.3700E+02  0.1539E+03
      5.848  0.3540E+02  0.1612E+03
      6.055  0.3860E+02  0.1693E+03
      6.263  0.4319E+02  0.1782E+03
      6.470  0.4457E+02  0.1874E+03
      6.677  0.4066E+02  0.1959E+03
      6.884  0.3635E+02  0.2034E+03
      7.092  0.3183E+02  0.2100E+03
      7.299  0.2364E+02  0.2149E+03
      7.506  0.1601E+02  0.2182E+03
      7.714  0.1433E+02  0.2212E+03
      7.921  0.1312E+02  0.2239E+03
      8.128  0.1405E+02  0.2268E+03
      8.336  0.1637E+02  0.2302E+03
      8.543  0.2041E+02  0.2345E+03
      8.750  0.2501E+02  0.2396E+03
      8.958  0.2848E+02  0.2455E+03
      9.165  0.2853E+02  0.2515E+03
      9.372  0.1842E+02  0.2553E+03
      9.579  0.3935E+01  0.2561E+03
      9.787 -0.3772E+00  0.2560E+03
      9.994 -0.5496E-01  0.2560E+03
     10.201 -0.5847E-03  0.2560E+03
     10.409 -0.7083E-06  0.2560E+03
     10.616 -0.1009E-09  0.2560E+03
     10.823 -0.1611E-14  0.2560E+03
     11.031  0.0000E+00  0.2560E+03
     11.238  0.0000E+00  0.2560E+03
     11.445  0.0000E+00  0.2560E+03
     11.652  0.0000E+00  0.2560E+03
     11.860  0.0000E+00  0.2560E+03
     12.067  0.0000E+00  0.2560E+03
     12.274  0.0000E+00  0.2560E+03
