   30   30    1    1
  0.1623088E+02  0.6380000E-09  0.8287863E-09  0.1008767E-08  0.5000000E-15
  1.000000000000000E-004
  CAR 
 Nb - Mo - Ta - Ti - W SQS               
    204     63    128
 
  0.0000000E+00  0.0000000E+00  0.0000000E+00  0.8000000E-02
    1      -47.090561   1.000000
    2      -47.079361   1.000000
    3      -47.042758   1.000000
    4      -46.984680   1.000000
    5      -46.946551   1.000000
    6      -46.878678   1.000000
    7      -23.656663   1.000000
    8      -23.586090   1.000000
    9      -23.518843   1.000000
   10      -23.408043   1.000000
   11      -23.294369   1.000000
   12      -23.274455   1.000000
   13      -23.260440   1.000000
   14      -23.227453   1.000000
   15      -23.213108   1.000000
   16      -23.180388   1.000000
   17      -23.170580   1.000000
   18      -23.153442   1.000000
   19      -23.078287   1.000000
   20      -23.050034   1.000000
   21      -22.946395   1.000000
   22      -22.909677   1.000000
   23      -22.843287   1.000000
   24      -22.697364   1.000000
   25       -0.449456   1.000000
   26        1.467439   1.000000
   27        1.969445   1.000000
   28        2.114545   1.000000
   29        2.313780   1.000000
   30        2.406423   1.000000
   31        2.502466   1.000000
   32        2.604976   1.000000
   33        2.690576   1.000000
   34        2.861743   1.000000
   35        2.917237   1.000000
   36        3.030538   1.000000
   37        3.059402   1.000000
   38        3.089151   1.000000
   39        3.184140   1.000000
   40        3.286099   1.000000
   41        3.325070   1.000000
   42        3.376960   1.000000
   43        3.414252   1.000000
   44        3.452252   1.000000
   45        3.477575   1.000000
   46        3.519682   1.000000
   47        3.610816   1.000000
   48        3.697494   1.000000
   49        3.730731   1.000000
   50        3.821483   1.000000
   51        3.837516   1.000000
   52        3.900447   1.000000
   53        3.976524   1.000000
   54        4.181721   1.000000
   55        4.363769   1.000000
   56        4.456685   1.000000
   57        4.607577   1.000000
   58        4.629084   1.000000
   59        4.771672   1.000000
   60        4.833850   1.000000
   61        4.868329   1.000000
   62        4.902465   1.000000
   63        4.952632   1.000000
   64        5.002423   1.000000
   65        5.055041   1.000000
   66        5.075240   1.000000
   67        5.111053   1.000000
   68        5.145292   1.000000
   69        5.198292   1.000000
   70        5.234648   1.000000
   71        5.288298   1.000000
   72        5.308686   1.000000
   73        5.397466   1.000000
   74        5.467103   1.000000
   75        5.565674   1.000000
   76        5.596905   1.000000
   77        5.715904   1.000000
   78        5.803007   1.000000
   79        5.906334   1.000000
   80        5.935581   1.000000
   81        5.972336   1.000000
   82        6.207488   1.000005
   83        6.332421   1.000214
   84        6.368416   1.000532
   85        6.468174   1.004474
   86        6.523001   1.011088
   87        6.555109   1.017113
   88        6.619635   1.031368
   89        6.638111   1.034270
   90        6.678653   1.033345
   91        6.753298   0.973853
   92        6.776060   0.932489
   93        6.819498   0.817724
   94        6.835357   0.764702
   95        6.872912   0.620855
   96        6.906827   0.478759
   97        6.923972   0.406843
   98        6.953443   0.289370
   99        7.021745   0.080122
  100        7.155923  -0.035154
  101        7.200534  -0.027934
  102        7.239832  -0.018980
  103        7.258786  -0.015019
  104        7.271325  -0.012670
  105        7.340907  -0.004043
  106        7.398740  -0.001240
  107        7.414971  -0.000859
  108        7.485296  -0.000147
  109        7.602210  -0.000004
  110        7.684518  -0.000000
  111        7.791780  -0.000000
  112        7.837503  -0.000000
  113        7.883925  -0.000000
  114        7.932838  -0.000000
  115        7.964890  -0.000000
  116        8.098996  -0.000000
  117        8.257132  -0.000000
  118        8.379860  -0.000000
  119        8.431793  -0.000000
  120        8.565964  -0.000000
  121        8.576577  -0.000000
  122        8.581569  -0.000000
  123        8.602696  -0.000000
  124        8.655140  -0.000000
  125        8.690045  -0.000000
  126        8.792886  -0.000000
  127        8.800847  -0.000000
  128        8.847467  -0.000000
 
  0.2000000E+00  0.0000000E+00  0.0000000E+00  0.1600000E-01
    1      -47.090250   1.000000
    2      -47.079538   1.000000
    3      -47.042741   1.000000
    4      -46.984678   1.000000
    5      -46.946603   1.000000
    6      -46.878679   1.000000
    7      -23.657861   1.000000
    8      -23.586093   1.000000
    9      -23.520126   1.000000
   10      -23.408076   1.000000
   11      -23.294640   1.000000
   12      -23.275211   1.000000
   13      -23.261298   1.000000
   14      -23.228253   1.000000
   15      -23.213055   1.000000
   16      -23.180145   1.000000
   17      -23.170371   1.000000
   18      -23.153236   1.000000
   19      -23.078476   1.000000
   20      -23.049842   1.000000
   21      -22.945236   1.000000
   22      -22.910327   1.000000
   23      -22.843202   1.000000
   24      -22.697259   1.000000
   25       -0.209274   1.000000
   26        1.452949   1.000000
   27        2.068411   1.000000
   28        2.200415   1.000000
   29        2.352599   1.000000
   30        2.460258   1.000000
   31        2.576326   1.000000
   32        2.744306   1.000000
   33        2.786450   1.000000
   34        2.860276   1.000000
   35        3.005835   1.000000
   36        3.040360   1.000000
   37        3.101755   1.000000
   38        3.188109   1.000000
   39        3.230265   1.000000
   40        3.313923   1.000000
   41        3.357904   1.000000
   42        3.415542   1.000000
   43        3.485306   1.000000
   44        3.517653   1.000000
   45        3.592141   1.000000
   46        3.618306   1.000000
   47        3.662377   1.000000
   48        3.804664   1.000000
   49        3.902656   1.000000
   50        3.951903   1.000000
   51        4.026292   1.000000
   52        4.120016   1.000000
   53        4.152098   1.000000
   54        4.192979   1.000000
   55        4.407877   1.000000
   56        4.590152   1.000000
   57        4.635275   1.000000
   58        4.689004   1.000000
   59        4.729175   1.000000
   60        4.768485   1.000000
   61        4.827306   1.000000
   62        4.867001   1.000000
   63        4.928889   1.000000
   64        5.003079   1.000000
   65        5.033344   1.000000
   66        5.087486   1.000000
   67        5.123830   1.000000
   68        5.163081   1.000000
   69        5.215772   1.000000
   70        5.252594   1.000000
   71        5.275858   1.000000
   72        5.337745   1.000000
   73        5.370467   1.000000
   74        5.423014   1.000000
   75        5.512722   1.000000
   76        5.587894   1.000000
   77        5.642030   1.000000
   78        5.735522   1.000000
   79        5.792589   1.000000
   80        5.861012   1.000000
   81        5.981233   1.000000
   82        6.024823   1.000000
   83        6.106078   1.000000
   84        6.167626   1.000001
   85        6.206960   1.000005
   86        6.248408   1.000019
   87        6.279207   1.000049
   88        6.328625   1.000194
   89        6.354919   1.000381
   90        6.413285   1.001491
   91        6.448308   1.003070
   92        6.506328   1.008595
   93        6.558143   1.017756
   94        6.592164   1.025461
   95        6.620382   1.031509
   96        6.695690   1.028016
   97        6.729598   1.004058
   98        6.756649   0.968554
   99        6.840387   0.746798
  100        6.872024   0.624480
  101        6.917763   0.432715
  102        7.031788   0.058845
  103        7.095021  -0.021239
  104        7.129564  -0.034182
  105        7.192265  -0.029716
  106        7.212581  -0.025200
  107        7.304763  -0.007619
  108        7.366515  -0.002456
  109        7.401069  -0.001177
  110        7.474619  -0.000196
  111        7.622885  -0.000002
  112        7.646283  -0.000001
  113        7.945106  -0.000000
  114        8.007040  -0.000000
  115        8.065936  -0.000000
  116        8.127622  -0.000000
  117        8.265506  -0.000000
  118        8.497552  -0.000000
  119        8.718256  -0.000000
  120        8.786787  -0.000000
  121        8.808311  -0.000000
  122        8.838435  -0.000000
  123        8.926105  -0.000000
  124        8.995260  -0.000000
  125        9.029762  -0.000000
  126        9.117395  -0.000000
  127        9.150147  -0.000000
  128        9.259449  -0.000000
 
  0.4000000E+00  0.0000000E+00  0.0000000E+00  0.1600000E-01
    1      -47.089736   1.000000
    2      -47.079828   1.000000
    3      -47.042720   1.000000
    4      -46.984674   1.000000
    5      -46.946687   1.000000
    6      -46.878678   1.000000
    7      -23.659822   1.000000
    8      -23.586253   1.000000
    9      -23.521983   1.000000
   10      -23.408117   1.000000
   11      -23.295071   1.000000
   12      -23.276499   1.000000
   13      -23.262773   1.000000
   14      -23.229235   1.000000
   15      -23.212963   1.000000
   16      -23.179761   1.000000
   17      -23.170080   1.000000
   18      -23.153118   1.000000
   19      -23.078740   1.000000
   20      -23.049534   1.000000
   21      -22.943439   1.000000
   22      -22.911254   1.000000
   23      -22.843008   1.000000
   24      -22.697123   1.000000
   25        0.450448   1.000000
   26        1.442647   1.000000
   27        1.564745   1.000000
   28        2.099019   1.000000
   29        2.370287   1.000000
   30        2.652571   1.000000
   31        2.716280   1.000000
   32        2.883569   1.000000
   33        2.903467   1.000000
   34        3.016793   1.000000
   35        3.132673   1.000000
   36        3.310131   1.000000
   37        3.423619   1.000000
   38        3.461693   1.000000
   39        3.510362   1.000000
   40        3.562787   1.000000
   41        3.643200   1.000000
   42        3.675842   1.000000
   43        3.749853   1.000000
   44        3.799684   1.000000
   45        3.837083   1.000000
   46        3.912641   1.000000
   47        3.965329   1.000000
   48        3.991058   1.000000
   49        4.030468   1.000000
   50        4.070035   1.000000
   51        4.175205   1.000000
   52        4.201512   1.000000
   53        4.306724   1.000000
   54        4.351076   1.000000
   55        4.394835   1.000000
   56        4.479876   1.000000
   57        4.619155   1.000000
   58        4.634806   1.000000
   59        4.708448   1.000000
   60        4.769305   1.000000
   61        4.861707   1.000000
   62        4.872451   1.000000
   63        4.897523   1.000000
   64        4.957368   1.000000
   65        4.989423   1.000000
   66        5.043606   1.000000
   67        5.089928   1.000000
   68        5.111442   1.000000
   69        5.141604   1.000000
   70        5.176914   1.000000
   71        5.200927   1.000000
   72        5.251378   1.000000
   73        5.324109   1.000000
   74        5.342283   1.000000
   75        5.390126   1.000000
   76        5.470630   1.000000
   77        5.502276   1.000000
   78        5.531311   1.000000
   79        5.555366   1.000000
   80        5.617778   1.000000
   81        5.650223   1.000000
   82        5.741186   1.000000
   83        5.843316   1.000000
   84        5.896818   1.000000
   85        5.953107   1.000000
   86        6.033288   1.000000
   87        6.065164   1.000000
   88        6.115605   1.000000
   89        6.150138   1.000001
   90        6.177702   1.000002
   91        6.224235   1.000009
   92        6.247788   1.000019
   93        6.276937   1.000046
   94        6.333952   1.000223
   95        6.350164   1.000338
   96        6.387721   1.000841
   97        6.453598   1.003402
   98        6.491135   1.006703
   99        6.519792   1.010573
  100        6.561809   1.018548
  101        6.682756   1.032397
  102        6.712888   1.018380
  103        6.749203   0.979971
  104        6.811059   0.843637
  105        6.868012   0.640753
  106        6.884153   0.574375
  107        6.923204   0.410027
  108        6.949656   0.303811
  109        7.039796   0.043684
  110        7.180403  -0.032026
  111        7.225724  -0.022162
  112        7.338930  -0.004195
  113        7.708372  -0.000000
  114        7.883350  -0.000000
  115        8.227680  -0.000000
  116        8.411198  -0.000000
  117        8.648800  -0.000000
  118        8.744643  -0.000000
  119        8.762011  -0.000000
  120        8.836638  -0.000000
  121        8.956775  -0.000000
  122        9.020022  -0.000000
  123        9.087191  -0.000000
  124        9.127294  -0.000000
  125        9.219439  -0.000000
  126        9.288775  -0.000000
  127        9.362294  -0.000000
  128        9.444327  -0.000000
 
  0.0000000E+00  0.2000000E+00  0.0000000E+00  0.1600000E-01
    1      -47.090267   1.000000
    2      -47.079658   1.000000
    3      -47.042773   1.000000
    4      -46.984705   1.000000
    5      -46.946494   1.000000
    6      -46.878693   1.000000
    7      -23.656779   1.000000
    8      -23.585483   1.000000
    9      -23.518186   1.000000
   10      -23.409598   1.000000
   11      -23.294267   1.000000
   12      -23.274356   1.000000
   13      -23.260575   1.000000
   14      -23.227634   1.000000
   15      -23.212984   1.000000
   16      -23.180300   1.000000
   17      -23.170650   1.000000
   18      -23.153114   1.000000
   19      -23.078429   1.000000
   20      -23.049879   1.000000
   21      -22.945465   1.000000
   22      -22.910142   1.000000
   23      -22.843295   1.000000
   24      -22.697749   1.000000
   25       -0.315210   1.000000
   26        1.389283   1.000000
   27        1.680842   1.000000
   28        2.018024   1.000000
   29        2.216737   1.000000
   30        2.443335   1.000000
   31        2.509228   1.000000
   32        2.644745   1.000000
   33        2.761656   1.000000
   34        2.820245   1.000000
   35        2.865377   1.000000
   36        2.916390   1.000000
   37        3.008738   1.000000
   38        3.116696   1.000000
   39        3.196651   1.000000
   40        3.304543   1.000000
   41        3.314189   1.000000
   42        3.401083   1.000000
   43        3.437047   1.000000
   44        3.518926   1.000000
   45        3.618889   1.000000
   46        3.656752   1.000000
   47        3.730037   1.000000
   48        3.783096   1.000000
   49        3.800000   1.000000
   50        3.833751   1.000000
   51        3.933548   1.000000
   52        3.957719   1.000000
   53        4.049600   1.000000
   54        4.088695   1.000000
   55        4.261444   1.000000
   56        4.425528   1.000000
   57        4.619118   1.000000
   58        4.662437   1.000000
   59        4.757736   1.000000
   60        4.785686   1.000000
   61        4.814105   1.000000
   62        4.861805   1.000000
   63        4.925743   1.000000
   64        4.996257   1.000000
   65        5.019044   1.000000
   66        5.110325   1.000000
   67        5.137824   1.000000
   68        5.167165   1.000000
   69        5.213287   1.000000
   70        5.237358   1.000000
   71        5.310819   1.000000
   72        5.357185   1.000000
   73        5.422049   1.000000
   74        5.463511   1.000000
   75        5.496634   1.000000
   76        5.620550   1.000000
   77        5.699510   1.000000
   78        5.775047   1.000000
   79        5.854422   1.000000
   80        5.879947   1.000000
   81        6.050889   1.000000
   82        6.195020   1.000003
   83        6.274397   1.000043
   84        6.314384   1.000132
   85        6.323199   1.000168
   86        6.361413   1.000448
   87        6.424401   1.001890
   88        6.461862   1.003980
   89        6.525440   1.011490
   90        6.599325   1.027095
   91        6.639227   1.034399
   92        6.706986   1.022226
   93        6.884848   0.571469
   94        6.927337   0.392939
   95        6.944356   0.324396
   96        6.967806   0.236873
   97        7.042974   0.038104
   98        7.069739   0.000489
   99        7.105288  -0.026841
  100        7.172667  -0.033303
  101        7.221585  -0.023117
  102        7.257855  -0.015202
  103        7.291916  -0.009349
  104        7.320633  -0.005829
  105        7.376160  -0.002014
  106        7.408495  -0.000996
  107        7.488969  -0.000133
  108        7.519344  -0.000057
  109        7.552761  -0.000021
  110        7.648235  -0.000001
  111        7.671440  -0.000000
  112        7.765126  -0.000000
  113        7.812284  -0.000000
  114        8.119860  -0.000000
  115        8.242310  -0.000000
  116        8.318269  -0.000000
  117        8.354204  -0.000000
  118        8.418928  -0.000000
  119        8.484822  -0.000000
  120        8.524940  -0.000000
  121        8.584019  -0.000000
  122        8.616926  -0.000000
  123        8.702208  -0.000000
  124        8.716644  -0.000000
  125        8.779177  -0.000000
  126        8.907140  -0.000000
  127        8.974397  -0.000000
  128        9.117689  -0.000000
 
  0.2000000E+00  0.2000000E+00  0.0000000E+00  0.1600000E-01
    1      -47.090163   1.000000
    2      -47.079629   1.000000
    3      -47.042731   1.000000
    4      -46.984680   1.000000
    5      -46.946606   1.000000
    6      -46.878679   1.000000
    7      -23.657151   1.000000
    8      -23.585977   1.000000
    9      -23.520040   1.000000
   10      -23.409575   1.000000
   11      -23.294621   1.000000
   12      -23.275012   1.000000
   13      -23.261455   1.000000
   14      -23.228041   1.000000
   15      -23.213151   1.000000
   16      -23.180139   1.000000
   17      -23.170405   1.000000
   18      -23.153022   1.000000
   19      -23.078530   1.000000
   20      -23.049941   1.000000
   21      -22.944653   1.000000
   22      -22.910185   1.000000
   23      -22.843250   1.000000
   24      -22.697529   1.000000
   25       -0.129940   1.000000
   26        1.384034   1.000000
   27        1.822692   1.000000
   28        2.267476   1.000000
   29        2.479444   1.000000
   30        2.549083   1.000000
   31        2.611467   1.000000
   32        2.708004   1.000000
   33        2.829322   1.000000
   34        2.867550   1.000000
   35        2.966658   1.000000
   36        3.039192   1.000000
   37        3.076842   1.000000
   38        3.140235   1.000000
   39        3.226352   1.000000
   40        3.251114   1.000000
   41        3.347463   1.000000
   42        3.397486   1.000000
   43        3.469177   1.000000
   44        3.547449   1.000000
   45        3.620700   1.000000
   46        3.679617   1.000000
   47        3.743239   1.000000
   48        3.760678   1.000000
   49        3.863871   1.000000
   50        3.921835   1.000000
   51        4.019508   1.000000
   52        4.089082   1.000000
   53        4.151718   1.000000
   54        4.224659   1.000000
   55        4.447551   1.000000
   56        4.469957   1.000000
   57        4.600127   1.000000
   58        4.683514   1.000000
   59        4.729769   1.000000
   60        4.819461   1.000000
   61        4.855080   1.000000
   62        4.892934   1.000000
   63        4.913658   1.000000
   64        4.968681   1.000000
   65        5.005599   1.000000
   66        5.072241   1.000000
   67        5.122260   1.000000
   68        5.139630   1.000000
   69        5.166302   1.000000
   70        5.246591   1.000000
   71        5.332895   1.000000
   72        5.351717   1.000000
   73        5.377573   1.000000
   74        5.482675   1.000000
   75        5.522635   1.000000
   76        5.599852   1.000000
   77        5.661482   1.000000
   78        5.773104   1.000000
   79        5.811208   1.000000
   80        5.843450   1.000000
   81        5.900190   1.000000
   82        5.949863   1.000000
   83        6.024192   1.000000
   84        6.105496   1.000000
   85        6.180494   1.000002
   86        6.221495   1.000008
   87        6.262949   1.000030
   88        6.324314   1.000173
   89        6.408629   1.001347
   90        6.438618   1.002532
   91        6.501924   1.008010
   92        6.535509   1.013251
   93        6.555252   1.017143
   94        6.616055   1.030675
   95        6.667273   1.035010
   96        6.726111   1.007490
   97        6.759983   0.963015
   98        6.799069   0.877520
   99        6.825087   0.799660
  100        6.870111   0.632263
  101        6.913339   0.451289
  102        6.974666   0.213212
  103        7.056563   0.016966
  104        7.087336  -0.015898
  105        7.162676  -0.034583
  106        7.214997  -0.024642
  107        7.312359  -0.006716
  108        7.416353  -0.000832
  109        7.507171  -0.000080
  110        7.584353  -0.000008
  111        7.636566  -0.000001
  112        7.782865  -0.000000
  113        7.947886  -0.000000
  114        7.988575  -0.000000
  115        8.187063  -0.000000
  116        8.314502  -0.000000
  117        8.377207  -0.000000
  118        8.494136  -0.000000
  119        8.558561  -0.000000
  120        8.609377  -0.000000
  121        8.628310  -0.000000
  122        8.669327  -0.000000
  123        8.821047  -0.000000
  124        8.878409  -0.000000
  125        9.023212  -0.000000
  126        9.103560  -0.000000
  127        9.260964  -0.000000
  128        9.282822  -0.000000
 
  0.4000000E+00  0.2000000E+00  0.0000000E+00  0.1600000E-01
    1      -47.089719   1.000000
    2      -47.079853   1.000000
    3      -47.042698   1.000000
    4      -46.984671   1.000000
    5      -46.946707   1.000000
    6      -46.878676   1.000000
    7      -23.658819   1.000000
    8      -23.586229   1.000000
    9      -23.522126   1.000000
   10      -23.409691   1.000000
   11      -23.295115   1.000000
   12      -23.276214   1.000000
   13      -23.262856   1.000000
   14      -23.229138   1.000000
   15      -23.213113   1.000000
   16      -23.179806   1.000000
   17      -23.170111   1.000000
   18      -23.152766   1.000000
   19      -23.078725   1.000000
   20      -23.049729   1.000000
   21      -22.943006   1.000000
   22      -22.911001   1.000000
   23      -22.843085   1.000000
   24      -22.697310   1.000000
   25        0.475197   1.000000
   26        1.436717   1.000000
   27        1.636996   1.000000
   28        2.228480   1.000000
   29        2.375296   1.000000
   30        2.506144   1.000000
   31        2.776942   1.000000
   32        2.881966   1.000000
   33        2.969871   1.000000
   34        3.046245   1.000000
   35        3.146744   1.000000
   36        3.336159   1.000000
   37        3.380924   1.000000
   38        3.430465   1.000000
   39        3.493797   1.000000
   40        3.540199   1.000000
   41        3.577633   1.000000
   42        3.622000   1.000000
   43        3.647390   1.000000
   44        3.696494   1.000000
   45        3.795595   1.000000
   46        3.827675   1.000000
   47        3.880443   1.000000
   48        3.939197   1.000000
   49        4.035869   1.000000
   50        4.068103   1.000000
   51        4.150390   1.000000
   52        4.181178   1.000000
   53        4.210188   1.000000
   54        4.284897   1.000000
   55        4.356691   1.000000
   56        4.440096   1.000000
   57        4.569980   1.000000
   58        4.680312   1.000000
   59        4.744455   1.000000
   60        4.813283   1.000000
   61        4.852843   1.000000
   62        4.905097   1.000000
   63        4.956919   1.000000
   64        4.999050   1.000000
   65        5.049056   1.000000
   66        5.085605   1.000000
   67        5.142597   1.000000
   68        5.161806   1.000000
   69        5.221297   1.000000
   70        5.229415   1.000000
   71        5.288366   1.000000
   72        5.342098   1.000000
   73        5.364544   1.000000
   74        5.449750   1.000000
   75        5.474191   1.000000
   76        5.525794   1.000000
   77        5.546646   1.000000
   78        5.580940   1.000000
   79        5.645147   1.000000
   80        5.712809   1.000000
   81        5.733085   1.000000
   82        5.768483   1.000000
   83        5.833611   1.000000
   84        5.861798   1.000000
   85        5.882156   1.000000
   86        5.928821   1.000000
   87        5.967873   1.000000
   88        6.042989   1.000000
   89        6.085704   1.000000
   90        6.119613   1.000000
   91        6.164317   1.000001
   92        6.199397   1.000004
   93        6.237986   1.000014
   94        6.274829   1.000043
   95        6.302607   1.000096
   96        6.343067   1.000282
   97        6.416327   1.001592
   98        6.439676   1.002587
   99        6.476652   1.005215
  100        6.507170   1.008710
  101        6.568547   1.020038
  102        6.618557   1.031163
  103        6.664768   1.035204
  104        6.724499   1.008996
  105        6.808192   0.852059
  106        6.866871   0.645351
  107        6.964509   0.248586
  108        6.981054   0.192079
  109        7.058596   0.014174
  110        7.273993  -0.012201
  111        7.378068  -0.001936
  112        7.553037  -0.000021
  113        7.854634  -0.000000
  114        8.126255  -0.000000
  115        8.367314  -0.000000
  116        8.495776  -0.000000
  117        8.619690  -0.000000
  118        8.684199  -0.000000
  119        8.719718  -0.000000
  120        8.879194  -0.000000
  121        8.941731  -0.000000
  122        8.962194  -0.000000
  123        9.042373  -0.000000
  124        9.096179  -0.000000
  125        9.161563  -0.000000
  126        9.210628  -0.000000
  127        9.276863  -0.000000
  128        9.369813  -0.000000
 
 -0.4000000E+00  0.2000000E+00  0.0000000E+00  0.1600000E-01
    1      -47.089543   1.000000
    2      -47.080024   1.000000
    3      -47.042722   1.000000
    4      -46.984687   1.000000
    5      -46.946658   1.000000
    6      -46.878688   1.000000
    7      -23.659494   1.000000
    8      -23.585906   1.000000
    9      -23.521542   1.000000
   10      -23.409760   1.000000
   11      -23.295059   1.000000
   12      -23.276336   1.000000
   13      -23.262864   1.000000
   14      -23.229173   1.000000
   15      -23.212920   1.000000
   16      -23.179735   1.000000
   17      -23.170184   1.000000
   18      -23.152891   1.000000
   19      -23.078753   1.000000
   20      -23.049516   1.000000
   21      -22.942769   1.000000
   22      -22.911373   1.000000
   23      -22.843055   1.000000
   24      -22.697403   1.000000
   25        0.641248   1.000000
   26        1.394696   1.000000
   27        1.546513   1.000000
   28        2.018947   1.000000
   29        2.182222   1.000000
   30        2.596209   1.000000
   31        2.679289   1.000000
   32        2.828573   1.000000
   33        2.990958   1.000000
   34        3.050821   1.000000
   35        3.192520   1.000000
   36        3.239321   1.000000
   37        3.330507   1.000000
   38        3.378542   1.000000
   39        3.476469   1.000000
   40        3.515417   1.000000
   41        3.599370   1.000000
   42        3.644835   1.000000
   43        3.762435   1.000000
   44        3.829924   1.000000
   45        3.920887   1.000000
   46        3.923864   1.000000
   47        3.994199   1.000000
   48        4.005582   1.000000
   49        4.086546   1.000000
   50        4.130565   1.000000
   51        4.193745   1.000000
   52        4.259830   1.000000
   53        4.321555   1.000000
   54        4.400734   1.000000
   55        4.449327   1.000000
   56        4.504293   1.000000
   57        4.611898   1.000000
   58        4.681020   1.000000
   59        4.762705   1.000000
   60        4.798955   1.000000
   61        4.850026   1.000000
   62        4.886078   1.000000
   63        4.930532   1.000000
   64        4.979942   1.000000
   65        4.996206   1.000000
   66        5.027237   1.000000
   67        5.047057   1.000000
   68        5.100599   1.000000
   69        5.139974   1.000000
   70        5.174017   1.000000
   71        5.203192   1.000000
   72        5.248930   1.000000
   73        5.292592   1.000000
   74        5.368263   1.000000
   75        5.405178   1.000000
   76        5.450458   1.000000
   77        5.512897   1.000000
   78        5.598971   1.000000
   79        5.629904   1.000000
   80        5.682842   1.000000
   81        5.695615   1.000000
   82        5.754279   1.000000
   83        5.815210   1.000000
   84        5.863634   1.000000
   85        5.915339   1.000000
   86        5.944358   1.000000
   87        5.985835   1.000000
   88        6.051352   1.000000
   89        6.108884   1.000000
   90        6.151093   1.000001
   91        6.186291   1.000003
   92        6.223962   1.000009
   93        6.285152   1.000058
   94        6.306656   1.000107
   95        6.334028   1.000223
   96        6.402128   1.001166
   97        6.455532   1.003530
   98        6.498797   1.007613
   99        6.554390   1.016962
  100        6.594654   1.026033
  101        6.613654   1.030192
  102        6.664630   1.035213
  103        6.711082   1.019620
  104        6.762897   0.957954
  105        6.822830   0.807040
  106        6.866660   0.646196
  107        6.922760   0.411873
  108        6.947082   0.313758
  109        6.988872   0.167460
  110        7.073125  -0.003143
  111        7.210599  -0.025656
  112        7.285418  -0.010323
  113        7.823011  -0.000000
  114        8.240709  -0.000000
  115        8.377989  -0.000000
  116        8.609067  -0.000000
  117        8.632019  -0.000000
  118        8.769003  -0.000000
  119        8.820584  -0.000000
  120        8.869250  -0.000000
  121        8.982352  -0.000000