       N       E                     dE             d eps       ncg     rms          rms(c)
DAV:   1     0.162420863104E+04    0.16242E+04   -0.75243E+04 16176   0.124E+03
DAV:   2    -0.501294811743E+02   -0.16743E+04   -0.16099E+04 16128   0.398E+02
DAV:   3    -0.334728503809E+03   -0.28460E+03   -0.26716E+03 28400   0.138E+02
DAV:   4    -0.366316381795E+03   -0.31588E+02   -0.29712E+02 25624   0.431E+01
DAV:   5    -0.368960392621E+03   -0.26440E+01   -0.26072E+01 28256   0.151E+01    0.798E+01
DAV:   6    -0.357780348873E+03    0.11180E+02   -0.10406E+02 23584   0.279E+01    0.379E+01
DAV:   7    -0.372329096315E+03   -0.14549E+02   -0.35418E+02 23520   0.671E+01    0.275E+01
DAV:   8    -0.352575626033E+03    0.19753E+02   -0.38454E+01 22224   0.166E+01    0.150E+01
DAV:   9    -0.347486675635E+03    0.50890E+01   -0.10748E+01 23208   0.100E+01    0.852E+00
DAV:  10    -0.346548638592E+03    0.93804E+00   -0.53653E+00 24632   0.632E+00    0.487E+00
DAV:  11    -0.346314272168E+03    0.23437E+00   -0.22772E+00 23416   0.402E+00    0.258E+00
DAV:  12    -0.346307697042E+03    0.65751E-02   -0.81508E-01 24104   0.261E+00    0.189E+00
DAV:  13    -0.346281288766E+03    0.26408E-01   -0.61482E-01 24664   0.218E+00    0.132E+00
DAV:  14    -0.346256208918E+03    0.25080E-01   -0.20400E-01 25040   0.130E+00    0.667E-01
DAV:  15    -0.346257061942E+03   -0.85302E-03   -0.67688E-02 23920   0.710E-01    0.595E-01
DAV:  16    -0.346255468039E+03    0.15939E-02   -0.26740E-02 23880   0.454E-01    0.433E-01
DAV:  17    -0.346253387019E+03    0.20810E-02   -0.11004E-02 21640   0.296E-01    0.210E-01
DAV:  18    -0.346252845302E+03    0.54172E-03   -0.51763E-03 21880   0.207E-01    0.955E-02
DAV:  19    -0.346252778401E+03    0.66900E-04   -0.13980E-03 20512   0.110E-01    0.541E-02
DAV:  20    -0.346252768465E+03    0.99359E-05   -0.38040E-04 15216   0.669E-02
   1 F= -.34625277E+03 E0= -.34624954E+03  d E =-.969344E-02
