 vasp.5.4.4.18Apr17-6-g9f103f2a35 (build Aug 09 2018 16:20:53) complex          
  
 executed on             LinuxIFC date 2020.04.12  14:10:29
 running on   32 total cores
 distrk:  each k-point on   32 cores,    1 groups
 distr:  one band on NCORES_PER_BAND=   4 cores,    8 groups


--------------------------------------------------------------------------------------------------------


 INCAR:
 POTCAR:    PAW_PBE Nb_sv 25May2007               
 POTCAR:    PAW_PBE Mo 08Apr2002                  
 POTCAR:    PAW_PBE Ta 17Jan2003                  
 POTCAR:    PAW_PBE Ti 08Apr2002                  
 POTCAR:    PAW_PBE W 08Apr2002                   
 POTCAR:    PAW_PBE Nb_sv 25May2007               
   VRHFIN =Nb: 4p5s4d                                                           
   LEXCH  = PE                                                                  
   EATOM  =  1555.1913 eV,  114.3033 Ry                                         
                                                                                
   TITEL  = PAW_PBE Nb_sv 25May2007                                             
   LULTRA =        F    use ultrasoft PP ?                                      
   IUNSCR =        1    unscreen: 0-lin 1-nonlin 2-no                           
   RPACOR =    1.800    partial core radius                                     
   POMASS =   92.910; ZVAL   =   13.000    mass and valenz                      
   RCORE  =    2.400    outmost cutoff radius                                   
   RWIGS  =    2.400; RWIGS  =    1.270    wigner-seitz radius (au A)           
   ENMAX  =  293.235; ENMIN  =  219.927 eV                                      
   ICORE  =        3    local potential                                         
   LCOR   =        T    correct aug charges                                     
   LPAW   =        T    paw PP                                                  
   EAUG   =  455.659                                                            
   DEXC   =    0.000                                                            
   RMAX   =    2.456    core radius for proj-oper                               
   RAUG   =    1.300    factor for augmentation sphere                          
   RDEP   =    2.451    radius for radial grids                                 
   RDEPT  =    1.956    core radius for aug-charge                              
                                                                                
   Atomic configuration                                                         
   11 entries                                                                   
     n  l   j            E        occ.                                          
     1  0  0.50    -18805.2457   2.0000                                         
     2  0  0.50     -2630.2869   2.0000                                         
     2  1  1.50     -2348.4046   6.0000                                         
     3  0  0.50      -438.8757   2.0000                                         
     3  1  1.50      -346.7588   6.0000                                         
     3  2  2.50      -196.2560  10.0000                                         
     4  0  0.50       -58.3859   2.0000                                         
     5  0  0.50        -3.9816   1.0000                                         
     4  1  1.50       -34.5141   6.0000                                         
     4  2  2.50        -3.0408   4.0000                                         
     4  3  2.50        -1.3606   0.0000                                         
   Description                                                                  
     l       E           TYP  RCUT    TYP  RCUT                                 
     0    -58.3859094     23  2.200                                             
     0     -3.9816262     23  2.200                                             
     1    -34.5140738     23  2.200                                             
     1     13.6058260     23  2.200                                             
     2     -3.0408010     23  2.200                                             
     2     -0.1283038     23  2.200                                             
     3     -1.3605826     23  2.400                                             
  local pseudopotential read in
  partial core-charges read in
  partial kinetic energy density read in
  atomic valenz-charges read in
  non local Contribution for L=           0  read in
    real space projection operators read in
  non local Contribution for L=           0  read in
    real space projection operators read in
  non local Contribution for L=           1  read in
    real space projection operators read in
  non local Contribution for L=           1  read in
    real space projection operators read in
  non local Contribution for L=           2  read in
    real space projection operators read in
  non local Contribution for L=           2  read in
    real space projection operators read in
    PAW grid and wavefunctions read in
 
   number of l-projection  operators is LMAX  =           6
   number of lm-projection operators is LMMAX =          18
 
 POTCAR:    PAW_PBE Mo 08Apr2002                  
   VRHFIN =Mo: 4p5s4d                                                           
   LEXCH  = PE                                                                  
   EATOM  =   217.5176 eV,   15.9871 Ry                                         
                                                                                
   TITEL  = PAW_PBE Mo 08Apr2002                                                
   LULTRA =        F    use ultrasoft PP ?                                      
   IUNSCR =        1    unscreen: 0-lin 1-nonlin 2-no                           
   RPACOR =    2.200    partial core radius                                     
   POMASS =   95.940; ZVAL   =    6.000    mass and valenz                      
   RCORE  =    2.750    outmost cutoff radius                                   
   RWIGS  =    2.750; RWIGS  =    1.455    wigner-seitz radius (au A)           
   ENMAX  =  224.584; ENMIN  =  168.438 eV                                      
   RCLOC  =    2.111    cutoff for local pot                                    
   LCOR   =        T    correct aug charges                                     
   LPAW   =        T    paw PP                                                  
   EAUG   =  345.278                                                            
   DEXC   =    0.000                                                            
   RMAX   =    2.821    core radius for proj-oper                               
   RAUG   =    1.300    factor for augmentation sphere                          
   RDEP   =    2.815    radius for radial grids                                 
   RDEPT  =    2.211    core radius for aug-charge                              
                                                                                
   Atomic configuration                                                         
   12 entries                                                                   
     n  l   j            E        occ.                                          
     1  0  0.50    -19819.0341   2.0000                                         
     2  0  0.50     -2799.0127   2.0000                                         
     2  1  1.50     -2502.0276   6.0000                                         
     3  0  0.50      -476.4448   2.0000                                         
     3  1  1.50      -379.1496   6.0000                                         
     3  2  2.50      -220.9367  10.0000                                         
     4  0  0.50       -64.3378   2.0000                                         
     4  1  1.50       -38.4773   6.0000                                         
     4  2  2.50        -3.7535   5.0000                                         
     5  0  0.50        -4.0862   1.0000                                         
     5  1  0.50        -2.7701   0.0000                                         
     4  3  2.50        -1.3606   0.0000                                         
   Description                                                                  
     l       E           TYP  RCUT    TYP  RCUT                                 
     2     -3.7534765     23  2.500                                             
     2     -5.1140591     23  2.500                                             
     0     -4.0861560     23  2.600                                             
     0     13.6058260     23  2.600                                             
     1      5.4423304     23  2.750                                             
     1     27.2116520     23  2.750                                             
  local pseudopotential read in
  partial core-charges read in
  partial kinetic energy density read in
  atomic valenz-charges read in
  non local Contribution for L=           2  read in
    real space projection operators read in
  non local Contribution for L=           2  read in
    real space projection operators read in
  non local Contribution for L=           0  read in
    real space projection operators read in
  non local Contribution for L=           0  read in
    real space projection operators read in
  non local Contribution for L=           1  read in
    real space projection operators read in
  non local Contribution for L=           1  read in
    real space projection operators read in
    PAW grid and wavefunctions read in
 
   number of l-projection  operators is LMAX  =           6
   number of lm-projection operators is LMMAX =          18
 
 POTCAR:    PAW_PBE Ta 17Jan2003                  
   VRHFIN =Ta:  6s5d                                                            
   LEXCH  = PE                                                                  
   EATOM  =   130.6506 eV,    9.6025 Ry                                         
                                                                                
   TITEL  = PAW_PBE Ta 17Jan2003                                                
   LULTRA =        F    use ultrasoft PP ?                                      
   IUNSCR =        1    unscreen: 0-lin 1-nonlin 2-no                           
   RPACOR =    2.330    partial core radius                                     
   POMASS =  180.948; ZVAL   =    5.000    mass and valenz                      
   RCORE  =    2.900    outmost cutoff radius                                   
   RWIGS  =    2.840; RWIGS  =    1.503    wigner-seitz radius (au A)           
   ENMAX  =  223.667; ENMIN  =  167.750 eV                                      
   RCLOC  =    2.205    cutoff for local pot                                    
   LCOR   =        T    correct aug charges                                     
   LPAW   =        T    paw PP                                                  
   EAUG   =  332.075                                                            
   DEXC   =    0.000                                                            
   RMAX   =    2.970    core radius for proj-oper                               
   RAUG   =    1.300    factor for augmentation sphere                          
   RDEP   =    3.060    radius for radial grids                                 
   RDEPT  =    2.354    core radius for aug-charge                              
                                                                                
   Atomic configuration                                                         
   16 entries                                                                   
     n  l   j            E        occ.                                          
     1  0  0.50    -67341.2807   2.0000                                         
     2  0  0.50    -11566.9376   2.0000                                         
     2  1  1.50    -10134.1182   6.0000                                         
     3  0  0.50     -2648.5620   2.0000                                         
     3  1  1.50     -2222.6012   6.0000                                         
     3  2  2.50     -1726.3120  10.0000                                         
     4  0  0.50      -538.6961   2.0000                                         
     4  1  1.50      -399.0129   6.0000                                         
     4  2  2.50      -220.3959  10.0000                                         
     4  3  3.50       -23.0374  14.0000                                         
     5  0  0.50       -71.2901   2.0000                                         
     5  1  1.50       -37.8225   6.0000                                         
     5  2  2.50        -2.6455   4.0000                                         
     6  0  0.50        -4.9623   1.0000                                         
     6  1  1.50        -1.3606   0.0000                                         
     5  3  2.50        -1.3606   0.0000                                         
   Description                                                                  
     l       E           TYP  RCUT    TYP  RCUT                                 
     2     -2.6455043     23  2.500                                             
     2     -0.6258895     23  2.500                                             
     0     -4.9622780     23  2.500                                             
     0      4.7531321     23  2.500                                             
     1     -1.3605826     23  2.900                                             
     1     27.2116520     23  2.900                                             
  local pseudopotential read in
  partial core-charges read in
  partial kinetic energy density read in
  atomic valenz-charges read in
  non local Contribution for L=           2  read in
    real space projection operators read in
  non local Contribution for L=           2  read in
    real space projection operators read in
  non local Contribution for L=           0  read in
    real space projection operators read in
  non local Contribution for L=           0  read in
    real space projection operators read in
  non local Contribution for L=           1  read in
    real space projection operators read in
  non local Contribution for L=           1  read in
    real space projection operators read in
    PAW grid and wavefunctions read in
 
   number of l-projection  operators is LMAX  =           6
   number of lm-projection operators is LMMAX =          18
 
 POTCAR:    PAW_PBE Ti 08Apr2002                  
   VRHFIN =Ti: d3 s1                                                            
   LEXCH  = PE                                                                  
   EATOM  =    94.7928 eV,    6.9671 Ry                                         
                                                                                
   TITEL  = PAW_PBE Ti 08Apr2002                                                
   LULTRA =        F    use ultrasoft PP ?                                      
   IUNSCR =        1    unscreen: 0-lin 1-nonlin 2-no                           
   RPACOR =    2.200    partial core radius                                     
   POMASS =   47.880; ZVAL   =    4.000    mass and valenz                      
   RCORE  =    2.800    outmost cutoff radius                                   
   RWIGS  =    2.500; RWIGS  =    1.323    wigner-seitz radius (au A)           
   ENMAX  =  178.330; ENMIN  =  133.747 eV                                      
   RCLOC  =    2.215    cutoff for local pot                                    
   LCOR   =        T    correct aug charges                                     
   LPAW   =        T    paw PP                                                  
   EAUG   =  328.883                                                            
   DEXC   =    0.000                                                            
   RMAX   =    2.868    core radius for proj-oper                               
   RAUG   =    1.300    factor for augmentation sphere                          
   RDEP   =    2.885    radius for radial grids                                 
   RDEPT  =    2.320    core radius for aug-charge                              
                                                                                
   Atomic configuration                                                         
    9 entries                                                                   
     n  l   j            E        occ.                                          
     1  0  0.50     -4865.3608   2.0000                                         
     2  0  0.50      -533.1367   2.0000                                         
     2  1  1.50      -440.5031   6.0000                                         
     3  0  0.50       -59.3186   2.0000                                         
     3  1  1.50       -35.7012   6.0000                                         
     3  2  2.50        -1.9157   3.0000                                         
     4  0  0.50        -3.7291   1.0000                                         
     4  1  1.50        -4.0817   0.0000                                         
     4  3  2.50        -1.3606   0.0000                                         
   Description                                                                  
     l       E           TYP  RCUT    TYP  RCUT                                 
     2     -1.9156924     23  2.800                                             
     2     -0.4062961     23  2.800                                             
     0     -3.7290832     23  2.800                                             
     0     20.4087390     23  2.800                                             
     1     -5.4423304     23  2.800                                             
  local pseudopotential read in
  partial core-charges read in
  partial kinetic energy density read in
  atomic valenz-charges read in
  non local Contribution for L=           2  read in
    real space projection operators read in
  non local Contribution for L=           2  read in
    real space projection operators read in
  non local Contribution for L=           0  read in
    real space projection operators read in
  non local Contribution for L=           0  read in
    real space projection operators read in
  non local Contribution for L=           1  read in
    real space projection operators read in
    PAW grid and wavefunctions read in
 
   number of l-projection  operators is LMAX  =           5
   number of lm-projection operators is LMMAX =          15
 
 POTCAR:    PAW_PBE W 08Apr2002                   
   VRHFIN =W : 6s5d                                                             
   LEXCH  = PE                                                                  
   EATOM  =   204.6103 eV,   15.0384 Ry                                         
                                                                                
   TITEL  = PAW_PBE W 08Apr2002                                                 
   LULTRA =        F    use ultrasoft PP ?                                      
   IUNSCR =        1    unscreen: 0-lin 1-nonlin 2-no                           
   RPACOR =    2.330    partial core radius                                     
   POMASS =  183.850; ZVAL   =    6.000    mass and valenz                      
   RCORE  =    2.750    outmost cutoff radius                                   
   RWIGS  =    2.750; RWIGS  =    1.455    wigner-seitz radius (au A)           
   ENMAX  =  223.057; ENMIN  =  167.293 eV                                      
   RCLOC  =    2.147    cutoff for local pot                                    
   LCOR   =        T    correct aug charges                                     
   LPAW   =        T    paw PP                                                  
   EAUG   =  373.438                                                            
   DEXC   =    0.000                                                            
   RMAX   =    2.801    core radius for proj-oper                               
   RAUG   =    1.300    factor for augmentation sphere                          
   RDEP   =    2.886    radius for radial grids                                 
   RDEPT  =    2.230    core radius for aug-charge                              
                                                                                
   Atomic configuration                                                         
   16 entries                                                                   
     n  l   j            E        occ.                                          
     1  0  0.50    -69465.5836   2.0000                                         
     2  0  0.50    -11986.2642   2.0000                                         
     2  1  1.50    -10479.8616   6.0000                                         
     3  0  0.50     -2759.0758   2.0000                                         
     3  1  1.50     -2313.1857   6.0000                                         
     3  2  2.50     -1801.1185  10.0000                                         
     4  0  0.50      -567.6791   2.0000                                         
     4  1  1.50      -421.4694   6.0000                                         
     4  2  2.50      -236.3473  10.0000                                         
     4  3  3.50       -31.2666  14.0000                                         
     5  0  0.50       -77.1085   2.0000                                         
     5  1  1.50       -41.3856   6.0000                                         
     5  2  2.50        -3.3185   5.0000                                         
     6  0  0.50        -5.1438   1.0000                                         
     6  1  0.50        -3.8096   0.0000                                         
     5  3  2.50        -1.3606   0.0000                                         
   Description                                                                  
     l       E           TYP  RCUT    TYP  RCUT                                 
     2     -3.3185288     23  2.500                                             
     2     -1.5965414     23  2.500                                             
     0     -5.1438054     23  2.500                                             
     0      4.9117504     23  2.500                                             
     1      2.7211652     23  2.750                                             
     1     27.2116520     23  2.750                                             
  local pseudopotential read in
  partial core-charges read in
  partial kinetic energy density read in
  atomic valenz-charges read in
  non local Contribution for L=           2  read in
    real space projection operators read in
  non local Contribution for L=           2  read in
    real space projection operators read in
  non local Contribution for L=           0  read in
    real space projection operators read in
  non local Contribution for L=           0  read in
    real space projection operators read in
  non local Contribution for L=           1  read in
    real space projection operators read in
  non local Contribution for L=           1  read in
    real space projection operators read in
    PAW grid and wavefunctions read in
 
   number of l-projection  operators is LMAX  =           6
   number of lm-projection operators is LMMAX =          18
 
 Optimization of the real space projectors (new method)

 maximal supplied QI-value         = 15.68
 optimisation between [QCUT,QGAM] = [ 10.20, 20.39] = [ 29.11,116.42] Ry 
 Optimized for a Real-space Cutoff    1.60 Angstroem

   l    n(q)    QCUT    max X(q) W(low)/X(q) W(high)/X(q)  e(spline) 
   0     10    10.195    10.201    0.19E-04    0.50E-05    0.39E-07
   0     10    10.195     8.174    0.27E-04    0.89E-05    0.77E-07
   1      9    10.195     3.488    0.83E-04    0.69E-04    0.10E-06
   1      9    10.195     4.917    0.46E-03    0.32E-03    0.50E-06
   2      9    10.195   153.744    0.18E-03    0.91E-03    0.79E-06
   2      9    10.195   126.342    0.18E-03    0.90E-03    0.79E-06
 Optimization of the real space projectors (new method)

 maximal supplied QI-value         = 13.61
 optimisation between [QCUT,QGAM] = [ 10.20, 20.41] = [ 29.16,116.64] Ry 
 Optimized for a Real-space Cutoff    1.55 Angstroem

   l    n(q)    QCUT    max X(q) W(low)/X(q) W(high)/X(q)  e(spline) 
   2      9    10.205    80.908    0.50E-03    0.10E-02    0.77E-06
   2      9    10.205    79.000    0.50E-03    0.10E-02    0.77E-06
   0      9    10.205    52.066    0.67E-04    0.52E-04    0.18E-06
   0      9    10.205    24.514    0.55E-04    0.43E-04    0.15E-06
   1      9    10.205    16.033    0.32E-03    0.32E-03    0.31E-06
   1      9    10.205    11.179    0.26E-03    0.25E-03    0.25E-06
 Optimization of the real space projectors (new method)

 maximal supplied QI-value         = 12.85
 optimisation between [QCUT,QGAM] = [ 10.15, 20.43] = [ 28.86,116.90] Ry 
 Optimized for a Real-space Cutoff    1.65 Angstroem

   l    n(q)    QCUT    max X(q) W(low)/X(q) W(high)/X(q)  e(spline) 
   2      9    10.152    62.315    0.60E-04    0.31E-03    0.56E-06
   2      9    10.152    52.185    0.60E-04    0.31E-03    0.56E-06
   0     10    10.152   103.837    0.42E-04    0.36E-04    0.14E-06
   0     10    10.152    59.728    0.37E-04    0.32E-04    0.13E-06
   1     10    10.152    13.958    0.22E-03    0.17E-03    0.20E-06
   1     10    10.152     8.441    0.16E-03    0.13E-03    0.14E-06
 Optimization of the real space projectors (new method)

 maximal supplied QI-value         = 13.42
 optimisation between [QCUT,QGAM] = [ 10.20, 20.39] = [ 29.12,116.47] Ry 
 Optimized for a Real-space Cutoff    1.60 Angstroem

   l    n(q)    QCUT    max X(q) W(low)/X(q) W(high)/X(q)  e(spline) 
   2      9    10.197    49.363    0.30E-03    0.51E-03    0.44E-06
   2      9    10.197    47.669    0.29E-03    0.50E-03    0.43E-06
   0     10    10.197    26.374    0.13E-03    0.16E-03    0.99E-07
   0     10    10.197    11.549    0.10E-03    0.13E-03    0.84E-07
   1      9    10.197     9.492    0.22E-04    0.44E-04    0.50E-07
 Optimization of the real space projectors (new method)

 maximal supplied QI-value         = 13.61
 optimisation between [QCUT,QGAM] = [ 10.20, 20.41] = [ 29.16,116.64] Ry 
 Optimized for a Real-space Cutoff    1.55 Angstroem

   l    n(q)    QCUT    max X(q) W(low)/X(q) W(high)/X(q)  e(spline) 
   2      9    10.205   130.855    0.41E-03    0.84E-03    0.64E-06
   2      9    10.205   114.007    0.41E-03    0.84E-03    0.64E-06
   0      9    10.205    84.709    0.58E-04    0.61E-04    0.12E-06
   0      9    10.205    49.163    0.53E-04    0.55E-04    0.11E-06
   1      9    10.205    15.765    0.16E-03    0.32E-03    0.27E-06
   1      9    10.205    10.638    0.14E-03    0.24E-03    0.21E-06

 ----------------------------------------------------------------------------- 
|                                                                             |
|  ADVICE TO THIS USER RUNNING 'VASP/VAMP'   (HEAR YOUR MASTER'S VOICE ...):  |
|                                                                             |
|      You enforced a specific xc-type in the INCAR file,                     |
|      a different type was found on the POTCAR file                          |
|          I HOPE YOU KNOW, WHAT YOU ARE  DOING                               |
|                                                                             |
 ----------------------------------------------------------------------------- 

  PAW_PBE Nb_sv 25May2007               :
 energy of atom  1       EATOM=-1555.1913
 kinetic energy error for atom=    0.0212 (will be added to EATOM!!)
  PAW_PBE Mo 08Apr2002                  :
 energy of atom  2       EATOM= -217.5176
 kinetic energy error for atom=    0.0025 (will be added to EATOM!!)
  PAW_PBE Ta 17Jan2003                  :
 energy of atom  3       EATOM= -130.6506
 kinetic energy error for atom=    0.0018 (will be added to EATOM!!)
  PAW_PBE Ti 08Apr2002                  :
 energy of atom  4       EATOM=  -94.7928
 kinetic energy error for atom=    0.0005 (will be added to EATOM!!)
  PAW_PBE W 08Apr2002                   :
 energy of atom  5       EATOM= -204.6103
 kinetic energy error for atom=    0.0024 (will be added to EATOM!!)
 
 
 POSCAR: Nb - Mo - Ta - Ti - W SQS-30 BCC        
  positions in direct lattice
  No initial velocities read in
 exchange correlation table for  LEXCH =       14
   RHO(1)=    0.500       N(1)  =     2000
   RHO(2)=  100.500       N(2)  =     4000

 VTST: version 3.2, (02/03/18)

 CHAIN: initializing optimizer
 
 OPT: Using VASP QUASI-newton optimizer
 CHAIN: Read ICHAIN            0
 
 POSCAR: Nb - Mo - Ta - Ti - W SQS-30 BCC        
  positions in direct lattice
  No initial velocities read in
 


--------------------------------------------------------------------------------------------------------


 ion  position               nearest neighbor table
   1  0.000  0.000  0.000-  12 2.76  13 2.76  21 2.76  28 2.76  24 2.76  14 2.76   4 2.76   5 2.76
                            25 3.19   7 3.19   7 3.19
   2  0.833  0.000  0.333-  28 2.76  29 2.76  13 2.76  23 2.76   4 2.76   9 2.76  14 2.76  27 2.76
                            16 3.19   8 3.19   8 3.19  15 3.19
   3  0.100  0.400  0.600-  27 2.76  10 2.76  21 2.76   5 2.76   9 2.76  17 2.76  11 2.76  22 2.76
                            29 3.19  18 3.19  18 3.19
   4  0.200  0.800  0.200-   8 2.76  25 2.76  17 2.76  22 2.76  26 2.76   7 2.76   2 2.76   1 2.76
                            29 3.19  28 3.19  28 3.19  13 3.19
   5  0.800  0.200  0.800-   6 2.76  15 2.76  18 2.76  30 2.76   3 2.76   7 2.76  19 2.76   1 2.76
                            27 3.19  14 3.19  11 3.19  12 3.19
   6  0.933  0.400  0.933-   5 2.76  11 2.76  14 2.76  21 2.76  26 2.76  10 2.76  13 2.76  25 2.76
                            30 3.19  12 3.19  30 3.19  16 3.19
   7  0.500  0.000  0.000-  14 2.76  24 2.76   4 2.76   5 2.76  12 2.76  13 2.76  21 2.76  28 2.76
                            15 3.19   8 3.19  26 3.19  30 3.19   1 3.19   1 3.19
   8  0.333  0.000  0.333-   4 2.76  23 2.76  14 2.76  29 2.76  28 2.76  27 2.76  13 2.76   9 2.76
                             7 3.19  17 3.19  20 3.19   2 3.19   2 3.19  19 3.19
   9  0.467  0.200  0.467-  18 2.76  15 2.76  16 2.76   3 2.76  19 2.76   2 2.76  20 2.76   8 2.76
                            21 3.19  17 3.19  27 3.19  27 3.19  23 3.19  14 3.19
  10  0.233  0.600  0.733-   3 2.76  23 2.76  12 2.76  30 2.76   6 2.76  18 2.76  29 2.76  24 2.76
                            17 3.19  21 3.19  19 3.19  11 3.19  11 3.19  25 3.19
  11  0.733  0.600  0.733-  18 2.76   6 2.76  29 2.76  24 2.76  30 2.76   3 2.76  23 2.76  12 2.76
                            22 3.19   5 3.19  15 3.19  10 3.19  10 3.19  26 3.19
  12  0.867  0.800  0.867-   1 2.76  25 2.76  26 2.76  10 2.76  19 2.76   7 2.76  15 2.76  11 2.76
                            28 3.19   6 3.19  24 3.19  24 3.19   5 3.19  29 3.19
  13  0.133  0.200  0.133-   1 2.76  16 2.76  30 2.76   2 2.76   7 2.76   6 2.76   8 2.76  20 2.76
                            21 3.19  25 3.19  14 3.19  14 3.19   4 3.19  27 3.19
  14  0.633  0.200  0.133-   7 2.76   6 2.76  20 2.76  30 2.76   8 2.76   1 2.76   2 2.76  16 2.76
                             5 3.19  26 3.19  13 3.19  13 3.19  28 3.19   9 3.19
  15  0.667  0.000  0.667-   5 2.76   9 2.76  24 2.76  27 2.76  21 2.76  29 2.76  12 2.76  23 2.76
                             7 3.19  18 3.19  11 3.19  19 3.19  19 3.19   2 3.19
  16  0.767  0.400  0.267-  22 2.76   9 2.76  13 2.76  26 2.76  25 2.76  17 2.76  27 2.76  14 2.76
                            18 3.19  28 3.19   2 3.19  20 3.19  20 3.19   6 3.19
  17  0.400  0.600  0.400-  23 2.76  20 2.76   4 2.76  28 2.76  29 2.76   3 2.76  16 2.76  18 2.76
                            10 3.19  26 3.19   8 3.19   9 3.19  22 3.19  22 3.19
  18  0.600  0.400  0.600-   9 2.76  11 2.76   5 2.76  21 2.76  27 2.76  22 2.76  10 2.76  17 2.76
                            30 3.19  16 3.19  15 3.19  23 3.19   3 3.19   3 3.19
  19  0.167  0.000  0.667-  21 2.76  27 2.76   9 2.76  12 2.76   5 2.76  23 2.76  24 2.76  29 2.76
                            10 3.19  15 3.19  15 3.19   8 3.19
  20  0.267  0.400  0.267-  17 2.76  27 2.76  14 2.76  22 2.76   9 2.76  25 2.76  26 2.76  13 2.76
                             8 3.19  16 3.19  16 3.19  30 3.19
  21  0.300  0.200  0.800-  30 2.76  19 2.76   3 2.76  18 2.76   6 2.76   1 2.76  15 2.76   7 2.76
                             9 3.19  13 3.19  10 3.19
  22  0.900  0.600  0.400-  29 2.76  16 2.76  28 2.76   4 2.76  23 2.76  18 2.76  20 2.76   3 2.76
                            11 3.19  25 3.19  27 3.19  17 3.19  17 3.19
  23  0.533  0.800  0.533-  17 2.76   8 2.76  10 2.76  22 2.76   2 2.76  19 2.76  11 2.76  15 2.76
                            28 3.19  18 3.19  29 3.19  29 3.19   9 3.19
  24  0.367  0.800  0.867-   7 2.76  26 2.76  25 2.76  11 2.76  15 2.76   1 2.76  19 2.76  10 2.76
                            30 3.19  12 3.19  12 3.19
  25  0.067  0.600  0.067-   4 2.76  12 2.76  24 2.76  28 2.76  16 2.76  20 2.76  30 2.76   6 2.76
                            22 3.19  26 3.19   1 3.19  13 3.19  26 3.19  10 3.19
  26  0.567  0.600  0.067-  28 2.76  12 2.76  24 2.76   6 2.76   4 2.76  16 2.76  20 2.76  30 2.76
                            17 3.19  25 3.19   7 3.19  14 3.19  25 3.19  11 3.19
  27  0.967  0.200  0.467-   3 2.76  19 2.76  20 2.76  18 2.76  15 2.76   8 2.76  16 2.76   2 2.76
                             5 3.19  22 3.19   9 3.19   9 3.19  29 3.19  13 3.19
  28  0.700  0.800  0.200-   2 2.76  26 2.76  22 2.76  17 2.76  25 2.76   1 2.76   8 2.76   7 2.76
                            23 3.19  12 3.19  16 3.19   4 3.19   4 3.19  14 3.19
  29  0.033  0.800  0.533-  22 2.76   2 2.76  11 2.76  17 2.76   8 2.76  15 2.76  10 2.76  19 2.76
                             4 3.19   3 3.19  23 3.19  23 3.19  27 3.19  12 3.19
  30  0.433  0.400  0.933-  21 2.76   5 2.76  11 2.76  10 2.76  14 2.76  13 2.76  25 2.76  26 2.76
                            18 3.19   6 3.19   7 3.19  24 3.19   6 3.19  20 3.19
 

IMPORTANT INFORMATION: All symmetrisations will be switched off!
NOSYMM: (Re-)initialisation of all symmetry stuff for point group C_1.

 
 
 KPOINTS: k-points                                

Automatic generation of k-mesh.
Space group operators:
 irot       det(A)        alpha          n_x          n_y          n_z        tau_x        tau_y        tau_z
    1     1.000000     0.000000     1.000000     0.000000     0.000000     0.000000     0.000000     0.000000
 
 Subroutine IBZKPT returns following result:
 ===========================================
 
 Found     63 irreducible k-points:
 
 Following reciprocal coordinates:
            Coordinates               Weight
  0.000000  0.000000  0.000000      1.000000
  0.200000  0.000000  0.000000      2.000000
  0.400000  0.000000  0.000000      2.000000
  0.000000  0.200000  0.000000      2.000000
  0.200000  0.200000  0.000000      2.000000
  0.400000  0.200000  0.000000      2.000000
 -0.400000  0.200000  0.000000      2.000000
 -0.200000  0.200000  0.000000      2.000000
  0.000000  0.400000  0.000000      2.000000
  0.200000  0.400000  0.000000      2.000000
  0.400000  0.400000  0.000000      2.000000
 -0.400000  0.400000  0.000000      2.000000
 -0.200000  0.400000  0.000000      2.000000
  0.000000  0.000000  0.200000      2.000000
  0.200000 -0.000000  0.200000      2.000000
  0.400000  0.000000  0.200000      2.000000
 -0.400000  0.000000  0.200000      2.000000
 -0.200000  0.000000  0.200000      2.000000
  0.000000  0.200000  0.200000      2.000000
  0.200000  0.200000  0.200000      2.000000
  0.400000  0.200000  0.200000      2.000000
 -0.400000  0.200000  0.200000      2.000000
 -0.200000  0.200000  0.200000      2.000000
  0.000000  0.400000  0.200000      2.000000
  0.200000  0.400000  0.200000      2.000000
  0.400000  0.400000  0.200000      2.000000
 -0.400000  0.400000  0.200000      2.000000
 -0.200000  0.400000  0.200000      2.000000
  0.000000 -0.400000  0.200000      2.000000
  0.200000 -0.400000  0.200000      2.000000
  0.400000 -0.400000  0.200000      2.000000
 -0.400000 -0.400000  0.200000      2.000000
 -0.200000 -0.400000  0.200000      2.000000
  0.000000 -0.200000  0.200000      2.000000
  0.200000 -0.200000  0.200000      2.000000
  0.400000 -0.200000  0.200000      2.000000
 -0.400000 -0.200000  0.200000      2.000000
 -0.200000 -0.200000  0.200000      2.000000
  0.000000  0.000000  0.400000      2.000000
  0.200000  0.000000  0.400000      2.000000
  0.400000 -0.000000  0.400000      2.000000
 -0.400000  0.000000  0.400000      2.000000
 -0.200000  0.000000  0.400000      2.000000
  0.000000  0.200000  0.400000      2.000000
  0.200000  0.200000  0.400000      2.000000
  0.400000  0.200000  0.400000      2.000000
 -0.400000  0.200000  0.400000      2.000000
 -0.200000  0.200000  0.400000      2.000000
  0.000000  0.400000  0.400000      2.000000
  0.200000  0.400000  0.400000      2.000000
  0.400000  0.400000  0.400000      2.000000
 -0.400000  0.400000  0.400000      2.000000
 -0.200000  0.400000  0.400000      2.000000
  0.000000 -0.400000  0.400000      2.000000
  0.200000 -0.400000  0.400000      2.000000
  0.400000 -0.400000  0.400000      2.000000
 -0.400000 -0.400000  0.400000      2.000000
 -0.200000 -0.400000  0.400000      2.000000
  0.000000 -0.200000  0.400000      2.000000
  0.200000 -0.200000  0.400000      2.000000
  0.400000 -0.200000  0.400000      2.000000
 -0.400000 -0.200000  0.400000      2.000000
 -0.200000 -0.200000  0.400000      2.000000
 
 Following cartesian coordinates:
            Coordinates               Weight
  0.000000  0.000000  0.000000      1.000000
 -0.013333 -0.033333  0.100000      2.000000
 -0.026667 -0.066667  0.200000      2.000000
  0.080000  0.000000  0.000000      2.000000
  0.066667 -0.033333  0.100000      2.000000
  0.053333 -0.066667  0.200000      2.000000
  0.106667  0.066667 -0.200000      2.000000
  0.093333  0.033333 -0.100000      2.000000
  0.160000  0.000000  0.000000      2.000000
  0.146667 -0.033333  0.100000      2.000000
  0.133333 -0.066667  0.200000      2.000000
  0.186667  0.066667 -0.200000      2.000000
  0.173333  0.033333 -0.100000      2.000000
 -0.013333  0.066667  0.000000      2.000000
 -0.026667  0.033333  0.100000      2.000000
 -0.040000  0.000000  0.200000      2.000000
  0.013333  0.133333 -0.200000      2.000000
  0.000000  0.100000 -0.100000      2.000000
  0.066667  0.066667  0.000000      2.000000
  0.053333  0.033333  0.100000      2.000000
  0.040000  0.000000  0.200000      2.000000
  0.093333  0.133333 -0.200000      2.000000
  0.080000  0.100000 -0.100000      2.000000
  0.146667  0.066667  0.000000      2.000000
  0.133333  0.033333  0.100000      2.000000
  0.120000  0.000000  0.200000      2.000000
  0.173333  0.133333 -0.200000      2.000000
  0.160000  0.100000 -0.100000      2.000000
 -0.173333  0.066667  0.000000      2.000000
 -0.186667  0.033333  0.100000      2.000000
 -0.200000  0.000000  0.200000      2.000000
 -0.146667  0.133333 -0.200000      2.000000
 -0.160000  0.100000 -0.100000      2.000000
 -0.093333  0.066667  0.000000      2.000000
 -0.106667  0.033333  0.100000      2.000000
 -0.120000  0.000000  0.200000      2.000000
 -0.066667  0.133333 -0.200000      2.000000
 -0.080000  0.100000 -0.100000      2.000000
 -0.026667  0.133333  0.000000      2.000000
 -0.040000  0.100000  0.100000      2.000000
 -0.053333  0.066667  0.200000      2.000000
  0.000000  0.200000 -0.200000      2.000000
 -0.013333  0.166667 -0.100000      2.000000
  0.053333  0.133333  0.000000      2.000000
  0.040000  0.100000  0.100000      2.000000
  0.026667  0.066667  0.200000      2.000000
  0.080000  0.200000 -0.200000      2.000000
  0.066667  0.166667 -0.100000      2.000000
  0.133333  0.133333  0.000000      2.000000
  0.120000  0.100000  0.100000      2.000000
  0.106667  0.066667  0.200000      2.000000
  0.160000  0.200000 -0.200000      2.000000
  0.146667  0.166667 -0.100000      2.000000
 -0.186667  0.133333  0.000000      2.000000
 -0.200000  0.100000  0.100000      2.000000
 -0.213333  0.066667  0.200000      2.000000
 -0.160000  0.200000 -0.200000      2.000000
 -0.173333  0.166667 -0.100000      2.000000
 -0.106667  0.133333  0.000000      2.000000
 -0.120000  0.100000  0.100000      2.000000
 -0.133333  0.066667  0.200000      2.000000
 -0.080000  0.200000 -0.200000      2.000000
 -0.093333  0.166667 -0.100000      2.000000
 


--------------------------------------------------------------------------------------------------------




 Dimension of arrays:
   k-points           NKPTS =     63   k-points in BZ     NKDIM =     63   number of bands    NBANDS=    128
   number of dos      NEDOS =    301   number of ions     NIONS =     30
   non local maximal  LDIM  =      6   non local SUM 2l+1 LMDIM =     18
   total plane-waves  NPLWV =  67200
   max r-space proj   IRMAX =   2639   max aug-charges    IRDMAX=   9730
   dimension x,y,z NGX =    32 NGY =   42 NGZ =   50
   dimension x,y,z NGXF=    64 NGYF=   84 NGZF=  100
   support grid    NGXF=    64 NGYF=   84 NGZF=  100
   ions per type =               6   6   6   6   6
   NGX,Y,Z   is equivalent  to a cutoff of   8.34,  8.42,  8.24 a.u.
   NGXF,Y,Z  is equivalent  to a cutoff of  16.68, 16.85, 16.48 a.u.

 SYSTEM =  Nb - Mo - Ta - Ti - W SQS               
 POSCAR =  Nb - Mo - Ta - Ti - W SQS-30 BCC        

 Startparameter for this run:
   NWRITE =      2    write-flag & timer
   PREC   = normal    normal or accurate (medium, high low for compatibility)
   ISTART =      0    job   : 0-new  1-cont  2-samecut
   ICHARG =      2    charge: 1-file 2-atom 10-const
   ISPIN  =      1    spin polarized calculation?
   LNONCOLLINEAR =      F non collinear calculations
   LSORBIT =      F    spin-orbit coupling
   INIWAV =      1    electr: 0-lowe 1-rand  2-diag
   LASPH  =      F    aspherical Exc in radial PAW
   METAGGA=      F    non-selfconsistent MetaGGA calc.

 Electronic Relaxation 1
   ENCUT  =  400.0 eV  29.40 Ry    5.42 a.u.  10.40 13.52 16.45*2*pi/ulx,y,z
   ENINI  =  400.0     initial cutoff
   ENAUG  =  455.7 eV  augmentation charge cutoff
   NELM   =     60;   NELMIN=  2; NELMDL= -5     # of ELM steps 
   EDIFF  = 0.1E-03   stopping-criterion for ELM
   LREAL  =      T    real-space projection
   NLSPLINE    = F    spline interpolate recip. space projectors
   LCOMPAT=      F    compatible to vasp.4.4
   GGA_COMPAT  = T    GGA compatible to vasp.4.4-vasp.4.6
   LMAXPAW     = -100 max onsite density
   LMAXMIX     =    2 max onsite mixed and CHGCAR
   VOSKOWN=      0    Vosko Wilk Nusair interpolation
   ROPT   =   -0.00050  -0.00050  -0.00050  -0.00050
   ROPT   =   -0.00050
 Ionic relaxation
   EDIFFG = 0.1E-02   stopping-criterion for IOM
   NSW    =      0    number of steps for IOM
   NBLOCK =      1;   KBLOCK =      1    inner block; outer block 
   IBRION =     -1    ionic relax: 0-MD 1-quasi-New 2-CG
   NFREE  =      0    steps in history (QN), initial steepest desc. (CG)
   ISIF   =      2    stress and relaxation
   IWAVPR =     10    prediction:  0-non 1-charg 2-wave 3-comb
   ISYM   =      0    0-nonsym 1-usesym 2-fastsym
   LCORR  =      T    Harris-Foulkes like correction to forces

   POTIM  = 0.5000    time-step for ionic-motion
   TEIN   =    0.0    initial temperature
   TEBEG  =    0.0;   TEEND  =   0.0 temperature during run
   SMASS  =  -3.00    Nose mass-parameter (am)
   estimated Nose-frequenzy (Omega)   =  0.10E-29 period in steps =****** mass=  -0.930E-27a.u.
   SCALEE = 1.0000    scale energy and forces
   NPACO  =    256;   APACO  = 16.0  distance and # of slots for P.C.
   PSTRESS=    0.0 pullay stress

  Mass of Ions in am
   POMASS =  92.91 95.94180.95 47.88183.85
  Ionic Valenz
   ZVAL   =  13.00  6.00  5.00  4.00  6.00
  Atomic Wigner-Seitz radii
   RWIGS  =  -1.00 -1.00 -1.00 -1.00 -1.00
  virtual crystal weights 
   VCA    =   1.00  1.00  1.00  1.00  1.00
   NELECT =     204.0000    total number of electrons
   NUPDOWN=      -1.0000    fix difference up-down

 DOS related values:
   EMIN   =  10.00;   EMAX   =-10.00  energy-range for DOS
   EFERMI =   0.00
   ISMEAR =     1;   SIGMA  =   0.20  broadening in eV -4-tet -1-fermi 0-gaus

 Electronic relaxation 2 (details)
   IALGO  =     38    algorithm
   LDIAG  =      T    sub-space diagonalisation (order eigenvalues)
   LSUBROT=      F    optimize rotation matrix (better conditioning)
   TURBO    =      0    0=normal 1=particle mesh
   IRESTART =      0    0=no restart 2=restart with 2 vectors
   NREBOOT  =      0    no. of reboots
   NMIN     =      0    reboot dimension
   EREF     =   0.00    reference energy to select bands
   IMIX   =      4    mixing-type and parameters
     AMIX     =   0.40;   BMIX     =  1.00
     AMIX_MAG =   1.60;   BMIX_MAG =  1.00
     AMIN     =   0.10
     WC   =   100.;   INIMIX=   1;  MIXPRE=   1;  MAXMIX= -45

 Intra band minimization:
   WEIMIN = 0.0000     energy-eigenvalue tresh-hold
   EBREAK =  0.20E-06  absolut break condition
   DEPER  =   0.30     relativ break condition  

   TIME   =   0.40     timestep for ELM

  volume/ion in A,a.u.               =      16.23       109.53
  Fermi-wavevector in a.u.,A,eV,Ry     =   1.224984  2.314884 20.416713  1.500586
  Thomas-Fermi vector in A             =   2.360039
 
 Write flags
   LWAVE        =      T    write WAVECAR
   LDOWNSAMPLE  =      F    k-point downsampling of WAVECAR
   LCHARG       =      T    write CHGCAR
   LVTOT        =      F    write LOCPOT, total local potential
   LVHAR        =      F    write LOCPOT, Hartree potential only
   LELF         =      F    write electronic localiz. function (ELF)
   LORBIT       =      0    0 simple, 1 ext, 2 COOP (PROOUT), +10 PAW based schemes


 Dipole corrections
   LMONO  =      F    monopole corrections only (constant potential shift)
   LDIPOL =      F    correct potential (dipole corrections)
   IDIPOL =      0    1-x, 2-y, 3-z, 4-all directions 
   EPSILON=  1.0000000 bulk dielectric constant

 Exchange correlation treatment:
   GGA     =    PS    GGA type
   LEXCH   =    14    internal setting for exchange type
   VOSKOWN=      0    Vosko Wilk Nusair interpolation
   LHFCALC =     F    Hartree Fock is set to
   LHFONE  =     F    Hartree Fock one center treatment
   AEXX    =    0.0000 exact exchange contribution

 Linear response parameters
   LEPSILON=     F    determine dielectric tensor
   LRPA    =     F    only Hartree local field effects (RPA)
   LNABLA  =     F    use nabla operator in PAW spheres
   LVEL    =     F    velocity operator in full k-point grid
   LINTERFAST=   F  fast interpolation
   KINTER  =     0    interpolate to denser k-point grid
   CSHIFT  =0.1000    complex shift for real part using Kramers Kronig
   OMEGAMAX=  -1.0    maximum frequency
   DEG_THRESHOLD= 0.2000000E-02 threshold for treating states as degnerate
   RTIME   =   -0.100 relaxation time in fs
  (WPLASMAI=    0.000 imaginary part of plasma frequency in eV, 0.658/RTIME)
   DFIELD  = 0.0000000 0.0000000 0.0000000 field for delta impulse in time
 
 Orbital magnetization related:
   ORBITALMAG=     F  switch on orbital magnetization
   LCHIMAG   =     F  perturbation theory with respect to B field
   DQ        =  0.001000  dq finite difference perturbation B field
   LLRAUG    =     F  two centre corrections for induced B field



--------------------------------------------------------------------------------------------------------


 Static calculation
 charge density and potential will be updated during run
 non-spin polarized calculation
 Variant of blocked Davidson
 Davidson routine will perform the subspace rotation
 perform sub-space diagonalisation
    after iterative eigenvector-optimisation
 modified Broyden-mixing scheme, WC =      100.0
 initial mixing is a Kerker type mixing with AMIX =  0.4000 and BMIX =      1.0000
 Hartree-type preconditioning will be used
 using additional bands           26
 real space projection scheme for non local part
 use partial core corrections
 calculate Harris-corrections to forces 
   (improved forces if not selfconsistent)
 use gradient corrections 
 use of overlap-Matrix (Vanderbilt PP)
 Methfessel and Paxton  Order N= 1 SIGMA  =   0.20


--------------------------------------------------------------------------------------------------------


  energy-cutoff  :      400.00
  volume of cell :      486.93
      direct lattice vectors                 reciprocal lattice vectors
     0.000000000  0.000000000  6.380000000    -0.020898642 -0.052246604  0.156739812
     7.975000000  1.595000000  1.595000000     0.125391850  0.000000000  0.000000000
     0.000000000  9.570000000  3.190000000    -0.020898642  0.104493208  0.000000000

  length of vectors
     6.380000000  8.287863114 10.087665736     0.166534770  0.125391850  0.106562581


 
 k-points in units of 2pi/SCALE and weight: k-points                                
   0.00000000  0.00000000  0.00000000       0.008
  -0.01333333 -0.03333333  0.10000000       0.016
  -0.02666667 -0.06666667  0.20000000       0.016
   0.08000000  0.00000000  0.00000000       0.016
   0.06666667 -0.03333333  0.10000000       0.016
   0.05333333 -0.06666667  0.20000000       0.016
   0.10666667  0.06666667 -0.20000000       0.016
   0.09333333  0.03333333 -0.10000000       0.016
   0.16000000  0.00000000  0.00000000       0.016
   0.14666667 -0.03333333  0.10000000       0.016
   0.13333333 -0.06666667  0.20000000       0.016
   0.18666667  0.06666667 -0.20000000       0.016
   0.17333333  0.03333333 -0.10000000       0.016
  -0.01333333  0.06666667  0.00000000       0.016
  -0.02666667  0.03333333  0.10000000       0.016
  -0.04000000  0.00000000  0.20000000       0.016
   0.01333333  0.13333333 -0.20000000       0.016
   0.00000000  0.10000000 -0.10000000       0.016
   0.06666667  0.06666667  0.00000000       0.016
   0.05333333  0.03333333  0.10000000       0.016
   0.04000000  0.00000000  0.20000000       0.016
   0.09333333  0.13333333 -0.20000000       0.016
   0.08000000  0.10000000 -0.10000000       0.016
   0.14666667  0.06666667  0.00000000       0.016
   0.13333333  0.03333333  0.10000000       0.016
   0.12000000  0.00000000  0.20000000       0.016
   0.17333333  0.13333333 -0.20000000       0.016
   0.16000000  0.10000000 -0.10000000       0.016
  -0.17333333  0.06666667  0.00000000       0.016
  -0.18666667  0.03333333  0.10000000       0.016
  -0.20000000  0.00000000  0.20000000       0.016
  -0.14666667  0.13333333 -0.20000000       0.016
  -0.16000000  0.10000000 -0.10000000       0.016
  -0.09333333  0.06666667  0.00000000       0.016
  -0.10666667  0.03333333  0.10000000       0.016
  -0.12000000  0.00000000  0.20000000       0.016
  -0.06666667  0.13333333 -0.20000000       0.016
  -0.08000000  0.10000000 -0.10000000       0.016
  -0.02666667  0.13333333  0.00000000       0.016
  -0.04000000  0.10000000  0.10000000       0.016
  -0.05333333  0.06666667  0.20000000       0.016
   0.00000000  0.20000000 -0.20000000       0.016
  -0.01333333  0.16666667 -0.10000000       0.016
   0.05333333  0.13333333  0.00000000       0.016
   0.04000000  0.10000000  0.10000000       0.016
   0.02666667  0.06666667  0.20000000       0.016
   0.08000000  0.20000000 -0.20000000       0.016
   0.06666667  0.16666667 -0.10000000       0.016
   0.13333333  0.13333333  0.00000000       0.016
   0.12000000  0.10000000  0.10000000       0.016
   0.10666667  0.06666667  0.20000000       0.016
   0.16000000  0.20000000 -0.20000000       0.016
   0.14666667  0.16666667 -0.10000000       0.016
  -0.18666667  0.13333333  0.00000000       0.016
  -0.20000000  0.10000000  0.10000000       0.016
  -0.21333333  0.06666667  0.20000000       0.016
  -0.16000000  0.20000000 -0.20000000       0.016
  -0.17333333  0.16666667 -0.10000000       0.016
  -0.10666667  0.13333333  0.00000000       0.016
  -0.12000000  0.10000000  0.10000000       0.016
  -0.13333333  0.06666667  0.20000000       0.016
  -0.08000000  0.20000000 -0.20000000       0.016
  -0.09333333  0.16666667 -0.10000000       0.016
 
 k-points in reciprocal lattice and weights: k-points                                
   0.00000000  0.00000000  0.00000000       0.008
   0.20000000  0.00000000  0.00000000       0.016
   0.40000000  0.00000000  0.00000000       0.016
   0.00000000  0.20000000  0.00000000       0.016
   0.20000000  0.20000000  0.00000000       0.016
   0.40000000  0.20000000  0.00000000       0.016
  -0.40000000  0.20000000  0.00000000       0.016
  -0.20000000  0.20000000  0.00000000       0.016
   0.00000000  0.40000000  0.00000000       0.016
   0.20000000  0.40000000  0.00000000       0.016
   0.40000000  0.40000000  0.00000000       0.016
  -0.40000000  0.40000000  0.00000000       0.016
  -0.20000000  0.40000000  0.00000000       0.016
   0.00000000  0.00000000  0.20000000       0.016
   0.20000000 -0.00000000  0.20000000       0.016
   0.40000000  0.00000000  0.20000000       0.016
  -0.40000000  0.00000000  0.20000000       0.016
  -0.20000000  0.00000000  0.20000000       0.016
   0.00000000  0.20000000  0.20000000       0.016
   0.20000000  0.20000000  0.20000000       0.016
   0.40000000  0.20000000  0.20000000       0.016
  -0.40000000  0.20000000  0.20000000       0.016
  -0.20000000  0.20000000  0.20000000       0.016
   0.00000000  0.40000000  0.20000000       0.016
   0.20000000  0.40000000  0.20000000       0.016
   0.40000000  0.40000000  0.20000000       0.016
  -0.40000000  0.40000000  0.20000000       0.016
  -0.20000000  0.40000000  0.20000000       0.016
   0.00000000 -0.40000000  0.20000000       0.016
   0.20000000 -0.40000000  0.20000000       0.016
   0.40000000 -0.40000000  0.20000000       0.016
  -0.40000000 -0.40000000  0.20000000       0.016
  -0.20000000 -0.40000000  0.20000000       0.016
   0.00000000 -0.20000000  0.20000000       0.016
   0.20000000 -0.20000000  0.20000000       0.016
   0.40000000 -0.20000000  0.20000000       0.016
  -0.40000000 -0.20000000  0.20000000       0.016
  -0.20000000 -0.20000000  0.20000000       0.016
   0.00000000  0.00000000  0.40000000       0.016
   0.20000000  0.00000000  0.40000000       0.016
   0.40000000 -0.00000000  0.40000000       0.016
  -0.40000000  0.00000000  0.40000000       0.016
  -0.20000000  0.00000000  0.40000000       0.016
   0.00000000  0.20000000  0.40000000       0.016
   0.20000000  0.20000000  0.40000000       0.016
   0.40000000  0.20000000  0.40000000       0.016
  -0.40000000  0.20000000  0.40000000       0.016
  -0.20000000  0.20000000  0.40000000       0.016
   0.00000000  0.40000000  0.40000000       0.016
   0.20000000  0.40000000  0.40000000       0.016
   0.40000000  0.40000000  0.40000000       0.016
  -0.40000000  0.40000000  0.40000000       0.016
  -0.20000000  0.40000000  0.40000000       0.016
   0.00000000 -0.40000000  0.40000000       0.016
   0.20000000 -0.40000000  0.40000000       0.016
   0.40000000 -0.40000000  0.40000000       0.016
  -0.40000000 -0.40000000  0.40000000       0.016
  -0.20000000 -0.40000000  0.40000000       0.016
   0.00000000 -0.20000000  0.40000000       0.016
   0.20000000 -0.20000000  0.40000000       0.016
   0.40000000 -0.20000000  0.40000000       0.016
  -0.40000000 -0.20000000  0.40000000       0.016
  -0.20000000 -0.20000000  0.40000000       0.016
 
 position of ions in fractional coordinates (direct lattice) 
   0.00000000  0.00000000  0.00000000
   0.83333333  0.00000000  0.33333333
   0.10000000  0.40000000  0.60000000
   0.20000000  0.80000000  0.20000000
   0.80000000  0.20000000  0.80000000
   0.93333333  0.40000000  0.93333333
   0.50000000  0.00000000  0.00000000
   0.33333333  0.00000000  0.33333333
   0.46666667  0.20000000  0.46666667
   0.23333333  0.60000000  0.73333333
   0.73333333  0.60000000  0.73333333
   0.86666667  0.80000000  0.86666667
   0.13333333  0.20000000  0.13333333
   0.63333333  0.20000000  0.13333333
   0.66666667  0.00000000  0.66666667
   0.76666667  0.40000000  0.26666667
   0.40000000  0.60000000  0.40000000
   0.60000000  0.40000000  0.60000000
   0.16666667  0.00000000  0.66666667
   0.26666667  0.40000000  0.26666667
   0.30000000  0.20000000  0.80000000
   0.90000000  0.60000000  0.40000000
   0.53333333  0.80000000  0.53333333
   0.36666667  0.80000000  0.86666667
   0.06666667  0.60000000  0.06666667
   0.56666667  0.60000000  0.06666667
   0.96666667  0.20000000  0.46666667
   0.70000000  0.80000000  0.20000000
   0.03333333  0.80000000  0.53333333
   0.43333333  0.40000000  0.93333333
 
 position of ions in cartesian coordinates  (Angst):
   0.00000000  0.00000000  0.00000000
   0.00000000  3.18999997  6.37999997
   3.19000000  6.38000000  3.19000000
   6.38000000  3.19000000  3.19000000
   1.59500000  7.97500000  7.97500000
   3.19000000  9.56999997  9.56999997
   0.00000000  0.00000000  3.19000000
   0.00000000  3.18999997  3.18999997
   1.59500000  4.78500003  4.78500003
   4.78500000  7.97499997  4.78499997
   4.78500000  7.97499997  7.97499997
   6.38000000  9.57000003  9.57000003
   1.59500000  1.59499997  1.59499997
   1.59500000  1.59499997  4.78499997
   0.00000000  6.38000003  6.38000003
   3.19000000  3.19000003  6.38000003
   4.78500000  4.78500000  4.78500000
   3.19000000  6.38000000  6.38000000
   0.00000000  6.38000003  3.19000003
   3.19000000  3.19000003  3.19000003
   1.59500000  7.97500000  4.78500000
   4.78500000  4.78500000  7.97500000
   6.38000000  6.37999997  6.37999997
   6.38000000  9.57000003  6.38000003
   4.78500000  1.59500003  1.59500003
   4.78500000  1.59500003  4.78500003
   1.59500000  4.78500003  7.97500003
   6.38000000  3.19000000  6.38000000
   6.38000000  6.37999997  3.18999997
   3.19000000  9.56999997  6.37999997
 


--------------------------------------------------------------------------------------------------------


 k-point  1 :   0.0000 0.0000 0.0000  plane waves:    8897
 k-point  2 :   0.2000 0.0000 0.0000  plane waves:    8877
 k-point  3 :   0.4000 0.0000 0.0000  plane waves:    8838
 k-point  4 :   0.0000 0.2000 0.0000  plane waves:    8892
 k-point  5 :   0.2000 0.2000 0.0000  plane waves:    8874
 k-point  6 :   0.4000 0.2000 0.0000  plane waves:    8842
 k-point  7 :  -0.4000 0.2000 0.0000  plane waves:    8831
 k-point  8 :  -0.2000 0.2000 0.0000  plane waves:    8856
 k-point  9 :   0.0000 0.4000 0.0000  plane waves:    8832
 k-point 10 :   0.2000 0.4000 0.0000  plane waves:    8854
 k-point 11 :   0.4000 0.4000 0.0000  plane waves:    8842
 k-point 12 :  -0.4000 0.4000 0.0000  plane waves:    8825
 k-point 13 :  -0.2000 0.4000 0.0000  plane waves:    8838
 k-point 14 :   0.0000 0.0000 0.2000  plane waves:    8866
 k-point 15 :   0.2000-0.0000 0.2000  plane waves:    8859
 k-point 16 :   0.4000 0.0000 0.2000  plane waves:    8847
 k-point 17 :  -0.4000 0.0000 0.2000  plane waves:    8822
 k-point 18 :  -0.2000 0.0000 0.2000  plane waves:    8873
 k-point 19 :   0.0000 0.2000 0.2000  plane waves:    8860
 k-point 20 :   0.2000 0.2000 0.2000  plane waves:    8864
 k-point 21 :   0.4000 0.2000 0.2000  plane waves:    8848
 k-point 22 :  -0.4000 0.2000 0.2000  plane waves:    8836
 k-point 23 :  -0.2000 0.2000 0.2000  plane waves:    8847
 k-point 24 :   0.0000 0.4000 0.2000  plane waves:    8858
 k-point 25 :   0.2000 0.4000 0.2000  plane waves:    8871
 k-point 26 :   0.4000 0.4000 0.2000  plane waves:    8843
 k-point 27 :  -0.4000 0.4000 0.2000  plane waves:    8833
 k-point 28 :  -0.2000 0.4000 0.2000  plane waves:    8842
 k-point 29 :   0.0000-0.4000 0.2000  plane waves:    8833
 k-point 30 :   0.2000-0.4000 0.2000  plane waves:    8847
 k-point 31 :   0.4000-0.4000 0.2000  plane waves:    8835
 k-point 32 :  -0.4000-0.4000 0.2000  plane waves:    8823
 k-point 33 :  -0.2000-0.4000 0.2000  plane waves:    8836
 k-point 34 :   0.0000-0.2000 0.2000  plane waves:    8871
 k-point 35 :   0.2000-0.2000 0.2000  plane waves:    8851
 k-point 36 :   0.4000-0.2000 0.2000  plane waves:    8839
 k-point 37 :  -0.4000-0.2000 0.2000  plane waves:    8824
 k-point 38 :  -0.2000-0.2000 0.2000  plane waves:    8852
 k-point 39 :   0.0000 0.0000 0.4000  plane waves:    8860
 k-point 40 :   0.2000 0.0000 0.4000  plane waves:    8846
 k-point 41 :   0.4000-0.0000 0.4000  plane waves:    8836
 k-point 42 :  -0.4000 0.0000 0.4000  plane waves:    8836
 k-point 43 :  -0.2000 0.0000 0.4000  plane waves:    8849
 k-point 44 :   0.0000 0.2000 0.4000  plane waves:    8841
 k-point 45 :   0.2000 0.2000 0.4000  plane waves:    8848
 k-point 46 :   0.4000 0.2000 0.4000  plane waves:    8827
 k-point 47 :  -0.4000 0.2000 0.4000  plane waves:    8839
 k-point 48 :  -0.2000 0.2000 0.4000  plane waves:    8843
 k-point 49 :   0.0000 0.4000 0.4000  plane waves:    8831
 k-point 50 :   0.2000 0.4000 0.4000  plane waves:    8848
 k-point 51 :   0.4000 0.4000 0.4000  plane waves:    8842
 k-point 52 :  -0.4000 0.4000 0.4000  plane waves:    8835
 k-point 53 :  -0.2000 0.4000 0.4000  plane waves:    8840
 k-point 54 :   0.0000-0.4000 0.4000  plane waves:    8843
 k-point 55 :   0.2000-0.4000 0.4000  plane waves:    8856
 k-point 56 :   0.4000-0.4000 0.4000  plane waves:    8849
 k-point 57 :  -0.4000-0.4000 0.4000  plane waves:    8818
 k-point 58 :  -0.2000-0.4000 0.4000  plane waves:    8834
 k-point 59 :   0.0000-0.2000 0.4000  plane waves:    8852
 k-point 60 :   0.2000-0.2000 0.4000  plane waves:    8843
 k-point 61 :   0.4000-0.2000 0.4000  plane waves:    8848
 k-point 62 :  -0.4000-0.2000 0.4000  plane waves:    8810
 k-point 63 :  -0.2000-0.2000 0.4000  plane waves:    8847

 maximum and minimum number of plane-waves per node :      2252     2173

 maximum number of plane-waves:      8897
 maximum index in each direction: 
   IXMAX=   10   IYMAX=   13   IZMAX=   16
   IXMIN=  -10   IYMIN=  -13   IZMIN=  -16


 real space projection operators:
  total allocation   :       9229.43 KBytes
  max/ min on nodes  :       2311.73       2302.43


 parallel 3D FFT for wavefunctions:
    minimum data exchange during FFTs selected (reduces bandwidth)
 parallel 3D FFT for charge:
    minimum data exchange during FFTs selected (reduces bandwidth)


 total amount of memory used by VASP MPI-rank0    75755. kBytes
=======================================================================

   base      :      30000. kBytes
   nonlr-proj:       4171. kBytes
   fftplans  :       1097. kBytes
   grid      :       2043. kBytes
   one-center:        124. kBytes
   wavefun   :      38320. kBytes
 
     INWAV:  cpu time    0.0000: real time    0.0002
 Broyden mixing: mesh for mixing (old mesh)
   NGX = 21   NGY = 27   NGZ = 33
  (NGX  = 64   NGY  = 84   NGZ  =100)
  gives a total of  18711 points

 initial charge density was supplied:
 charge density of overlapping atoms calculated
 number of electron     204.0000000 magnetization 
 keeping initial charge density in first step


--------------------------------------------------------------------------------------------------------


 Maximum index for non-local projection operator          633
 Maximum index for augmentation-charges          504 (set IRDMAX)


--------------------------------------------------------------------------------------------------------


 First call to EWALD:  gamma=   0.225
 Maximum number of real-space cells 3x 3x 2
 Maximum number of reciprocal cells 2x 3x 3

    FEWALD:  cpu time    0.0028: real time    0.0030


--------------------------------------- Iteration      1(   1)  ---------------------------------------


    POTLOK:  cpu time    0.0130: real time    0.0249
    SETDIJ:  cpu time    0.0039: real time    0.0039
     EDDAV:  cpu time   10.6392: real time   10.6744
       DOS:  cpu time    0.0040: real time    0.0040
    --------------------------------------------
      LOOP:  cpu time   10.6602: real time   10.7072

 eigenvalue-minimisations  : 16176
 total energy-change (2. order) : 0.1624209E+04  (-0.7524313E+04)
 number of electron     204.0000000 magnetization 
 augmentation part      204.0000000 magnetization 

 Free energy of the ion-electron system (eV)
  ---------------------------------------------------
  alpha Z        PSCENC =      1381.42178624
  Ewald energy   TEWEN  =    -12092.38474530
  -Hartree energ DENC   =     -3004.59813475
  -exchange      EXHF   =         0.00000000
  -V(xc)+E(xc)   XCENC  =      -902.57770117
  PAW double counting   =     12303.85264859   -10739.97191893
  entropy T*S    EENTRO =         0.00323014
  eigenvalues    EBANDS =      1467.61084057
  atomic energy  EATOM  =     13210.85262565
  Solvation  Ediel_sol  =         0.00000000
  ---------------------------------------------------
  free energy    TOTEN  =      1624.20863104 eV

  energy without entropy =     1624.20540090  energy(sigma->0) =     1624.20755433


--------------------------------------------------------------------------------------------------------




--------------------------------------- Iteration      1(   2)  ---------------------------------------


     EDDAV:  cpu time   10.5999: real time   10.6169
       DOS:  cpu time    0.0040: real time    0.0040
    --------------------------------------------
      LOOP:  cpu time   10.6039: real time   10.6209

 eigenvalue-minimisations  : 16128
 total energy-change (2. order) :-0.1674338E+04  (-0.1609872E+04)
 number of electron     204.0000000 magnetization 
 augmentation part      204.0000000 magnetization 

 Free energy of the ion-electron system (eV)
  ---------------------------------------------------
  alpha Z        PSCENC =      1381.42178624
  Ewald energy   TEWEN  =    -12092.38474530
  -Hartree energ DENC   =     -3004.59813475
  -exchange      EXHF   =         0.00000000
  -V(xc)+E(xc)   XCENC  =      -902.57770117
  PAW double counting   =     12303.85264859   -10739.97191893
  entropy T*S    EENTRO =         0.00233299
  eigenvalues    EBANDS =      -206.72637449
  atomic energy  EATOM  =     13210.85262565
  Solvation  Ediel_sol  =         0.00000000
  ---------------------------------------------------
  free energy    TOTEN  =       -50.12948117 eV

  energy without entropy =      -50.13181416  energy(sigma->0) =      -50.13025884


--------------------------------------------------------------------------------------------------------




--------------------------------------- Iteration      1(   3)  ---------------------------------------


     EDDAV:  cpu time   16.9045: real time   16.9352
       DOS:  cpu time    0.0043: real time    0.0043
    --------------------------------------------
      LOOP:  cpu time   16.9088: real time   16.9395

 eigenvalue-minimisations  : 28400
 total energy-change (2. order) :-0.2845990E+03  (-0.2671599E+03)
 number of electron     204.0000000 magnetization 
 augmentation part      204.0000000 magnetization 

 Free energy of the ion-electron system (eV)
  ---------------------------------------------------
  alpha Z        PSCENC =      1381.42178624
  Ewald energy   TEWEN  =    -12092.38474530
  -Hartree energ DENC   =     -3004.59813475
  -exchange      EXHF   =         0.00000000
  -V(xc)+E(xc)   XCENC  =      -902.57770117
  PAW double counting   =     12303.85264859   -10739.97191893
  entropy T*S    EENTRO =        -0.00003307
  eigenvalues    EBANDS =      -491.32303106
  atomic energy  EATOM  =     13210.85262565
  Solvation  Ediel_sol  =         0.00000000
  ---------------------------------------------------
  free energy    TOTEN  =      -334.72850381 eV

  energy without entropy =     -334.72847074  energy(sigma->0) =     -334.72849278


--------------------------------------------------------------------------------------------------------




--------------------------------------- Iteration      1(   4)  ---------------------------------------


     EDDAV:  cpu time   15.3792: real time   15.5340
       DOS:  cpu time    0.0039: real time    0.0039
    --------------------------------------------
      LOOP:  cpu time   15.3831: real time   15.5378

 eigenvalue-minimisations  : 25624
 total energy-change (2. order) :-0.3158788E+02  (-0.2971236E+02)
 number of electron     204.0000000 magnetization 
 augmentation part      204.0000000 magnetization 

 Free energy of the ion-electron system (eV)
  ---------------------------------------------------
  alpha Z        PSCENC =      1381.42178624
  Ewald energy   TEWEN  =    -12092.38474530
  -Hartree energ DENC   =     -3004.59813475
  -exchange      EXHF   =         0.00000000
  -V(xc)+E(xc)   XCENC  =      -902.57770117
  PAW double counting   =     12303.85264859   -10739.97191893
  entropy T*S    EENTRO =         0.01082449
  eigenvalues    EBANDS =      -522.92176661
  atomic energy  EATOM  =     13210.85262565
  Solvation  Ediel_sol  =         0.00000000
  ---------------------------------------------------
  free energy    TOTEN  =      -366.31638180 eV

  energy without entropy =     -366.32720628  energy(sigma->0) =     -366.31998996


--------------------------------------------------------------------------------------------------------




--------------------------------------- Iteration      1(   5)  ---------------------------------------


     EDDAV:  cpu time   16.8032: real time   16.8316
       DOS:  cpu time    0.0039: real time    0.0039
    CHARGE:  cpu time    0.3000: real time    0.3002
    MIXING:  cpu time    0.0013: real time    0.0014
    --------------------------------------------
      LOOP:  cpu time   17.1084: real time   17.1371

 eigenvalue-minimisations  : 28256
 total energy-change (2. order) :-0.2644011E+01  (-0.2607231E+01)
 number of electron     204.0000015 magnetization 
 augmentation part       23.1461467 magnetization 

 Broyden mixing:
  rms(total) = 0.79756E+01    rms(broyden)= 0.79756E+01
  rms(prec ) = 0.84211E+01
  weight for this iteration     100.00

 Free energy of the ion-electron system (eV)
  ---------------------------------------------------
  alpha Z        PSCENC =      1381.42178624
  Ewald energy   TEWEN  =    -12092.38474530
  -Hartree energ DENC   =     -3004.59813475
  -exchange      EXHF   =         0.00000000
  -V(xc)+E(xc)   XCENC  =      -902.57770117
  PAW double counting   =     12303.85264859   -10739.97191893
  entropy T*S    EENTRO =         0.01021812
  eigenvalues    EBANDS =      -525.56517107
  atomic energy  EATOM  =     13210.85262565
  Solvation  Ediel_sol  =         0.00000000
  ---------------------------------------------------
  free energy    TOTEN  =      -368.96039262 eV

  energy without entropy =     -368.97061074  energy(sigma->0) =     -368.96379866


--------------------------------------------------------------------------------------------------------




--------------------------------------- Iteration      1(   6)  ---------------------------------------


    POTLOK:  cpu time    0.0103: real time    0.0107
    SETDIJ:  cpu time    0.0035: real time    0.0035
     EDDAV:  cpu time   14.4115: real time   14.4392
       DOS:  cpu time    0.0041: real time    0.0041
    CHARGE:  cpu time    0.2992: real time    0.2995
    MIXING:  cpu time    0.0010: real time    0.0009
    --------------------------------------------
      LOOP:  cpu time   14.7295: real time   14.7578

 eigenvalue-minimisations  : 23584
 total energy-change (2. order) : 0.1118004E+02  (-0.1040648E+02)
 number of electron     204.0000015 magnetization 
 augmentation part       30.2887369 magnetization 

 Broyden mixing:
  rms(total) = 0.37896E+01    rms(broyden)= 0.37896E+01
  rms(prec ) = 0.52866E+01
  weight for this iteration     100.00

 eigenvalues of (default mixing * dielectric matrix)
  average eigenvalue GAMMA=   1.3469
  1.3469

 Free energy of the ion-electron system (eV)
  ---------------------------------------------------
  alpha Z        PSCENC =      1381.42178624
  Ewald energy   TEWEN  =    -12092.38474530
  -Hartree energ DENC   =     -2925.00627968
  -exchange      EXHF   =         0.00000000
  -V(xc)+E(xc)   XCENC  =      -900.10079022
  PAW double counting   =     16437.65375202   -14881.05909548
  entropy T*S    EENTRO =        -0.00725114
  eigenvalues    EBANDS =      -589.15035097
  atomic energy  EATOM  =     13210.85262565
  Solvation  Ediel_sol  =         0.00000000
  ---------------------------------------------------
  free energy    TOTEN  =      -357.78034887 eV

  energy without entropy =     -357.77309774  energy(sigma->0) =     -357.77793183


--------------------------------------------------------------------------------------------------------




--------------------------------------- Iteration      1(   7)  ---------------------------------------


    POTLOK:  cpu time    0.0096: real time    0.0105
    SETDIJ:  cpu time    0.0035: real time    0.0035
     EDDAV:  cpu time   14.3547: real time   14.3787
       DOS:  cpu time    0.0040: real time    0.0040
    CHARGE:  cpu time    0.2995: real time    0.2997
    MIXING:  cpu time    0.0006: real time    0.0006
    --------------------------------------------
      LOOP:  cpu time   14.6718: real time   14.6970

 eigenvalue-minimisations  : 23520
 total energy-change (2. order) :-0.1454875E+02  (-0.3541801E+02)
 number of electron     204.0000016 magnetization 
 augmentation part       24.6186617 magnetization 

 Broyden mixing:
  rms(total) = 0.27538E+01    rms(broyden)= 0.27538E+01
  rms(prec ) = 0.49981E+01
  weight for this iteration     100.00

 eigenvalues of (default mixing * dielectric matrix)
  average eigenvalue GAMMA=   1.0500
  1.6833  0.4167

 Free energy of the ion-electron system (eV)
  ---------------------------------------------------
  alpha Z        PSCENC =      1381.42178624
  Ewald energy   TEWEN  =    -12092.38474530
  -Hartree energ DENC   =     -2823.90901102
  -exchange      EXHF   =         0.00000000
  -V(xc)+E(xc)   XCENC  =      -901.18196500
  PAW double counting   =     18196.90262170   -16649.60839831
  entropy T*S    EENTRO =         0.01059657
  eigenvalues    EBANDS =      -694.43260683
  atomic energy  EATOM  =     13210.85262565
  Solvation  Ediel_sol  =         0.00000000
  ---------------------------------------------------
  free energy    TOTEN  =      -372.32909632 eV

  energy without entropy =     -372.33969288  energy(sigma->0) =     -372.33262850


--------------------------------------------------------------------------------------------------------




--------------------------------------- Iteration      1(   8)  ---------------------------------------


    POTLOK:  cpu time    0.0183: real time    0.0242
    SETDIJ:  cpu time    0.0035: real time    0.0035
     EDDAV:  cpu time   13.7198: real time   13.7420
       DOS:  cpu time    0.0039: real time    0.0039
    CHARGE:  cpu time    0.2949: real time    0.2972
    MIXING:  cpu time    0.0006: real time    0.0006
    --------------------------------------------
      LOOP:  cpu time   14.0410: real time   14.0714

 eigenvalue-minimisations  : 22224
 total energy-change (2. order) : 0.1975347E+02  (-0.3845359E+01)
 number of electron     204.0000016 magnetization 
 augmentation part       25.5031707 magnetization 

 Broyden mixing:
  rms(total) = 0.15018E+01    rms(broyden)= 0.15018E+01
  rms(prec ) = 0.26080E+01
  weight for this iteration     100.00

 eigenvalues of (default mixing * dielectric matrix)
  average eigenvalue GAMMA=   0.9469
  1.8138  0.5134  0.5134

 Free energy of the ion-electron system (eV)
  ---------------------------------------------------
  alpha Z        PSCENC =      1381.42178624
  Ewald energy   TEWEN  =    -12092.38474530
  -Hartree energ DENC   =     -2823.01060044
  -exchange      EXHF   =         0.00000000
  -V(xc)+E(xc)   XCENC  =      -899.12991456
  PAW double counting   =     20289.40780487   -18742.42450767
  entropy T*S    EENTRO =         0.00619298
  eigenvalues    EBANDS =      -677.31426780
  atomic energy  EATOM  =     13210.85262565
  Solvation  Ediel_sol  =         0.00000000
  ---------------------------------------------------
  free energy    TOTEN  =      -352.57562603 eV

  energy without entropy =     -352.58181901  energy(sigma->0) =     -352.57769036


--------------------------------------------------------------------------------------------------------




--------------------------------------- Iteration      1(   9)  ---------------------------------------


    POTLOK:  cpu time    0.0095: real time    0.0157
    SETDIJ:  cpu time    0.0035: real time    0.0035
     EDDAV:  cpu time   14.2159: real time   14.2399
       DOS:  cpu time    0.0040: real time    0.0040
    CHARGE:  cpu time    0.2971: real time    0.2973
    MIXING:  cpu time    0.0006: real time    0.0006
    --------------------------------------------
      LOOP:  cpu time   14.5306: real time   14.5610

 eigenvalue-minimisations  : 23208
 total energy-change (2. order) : 0.5088950E+01  (-0.1074773E+01)
 number of electron     204.0000015 magnetization 
 augmentation part       26.1697257 magnetization 

 Broyden mixing:
  rms(total) = 0.85212E+00    rms(broyden)= 0.85211E+00
  rms(prec ) = 0.15092E+01
  weight for this iteration     100.00

 eigenvalues of (default mixing * dielectric matrix)
  average eigenvalue GAMMA=   0.8757
  1.8732  0.6202  0.6202  0.3892

 Free energy of the ion-electron system (eV)
  ---------------------------------------------------
  alpha Z        PSCENC =      1381.42178624
  Ewald energy   TEWEN  =    -12092.38474530
  -Hartree energ DENC   =     -2832.23395215
  -exchange      EXHF   =         0.00000000
  -V(xc)+E(xc)   XCENC  =      -898.08879665
  PAW double counting   =     20898.53110033   -19349.41395737
  entropy T*S    EENTRO =         0.00181068
  eigenvalues    EBANDS =      -666.17254707
  atomic energy  EATOM  =     13210.85262565
  Solvation  Ediel_sol  =         0.00000000
  ---------------------------------------------------
  free energy    TOTEN  =      -347.48667564 eV

  energy without entropy =     -347.48848631  energy(sigma->0) =     -347.48727919


--------------------------------------------------------------------------------------------------------




--------------------------------------- Iteration      1(  10)  ---------------------------------------


    POTLOK:  cpu time    0.0104: real time    0.0107
    SETDIJ:  cpu time    0.0035: real time    0.0035
     EDDAV:  cpu time   14.9674: real time   14.9940
       DOS:  cpu time    0.0040: real time    0.0040
    CHARGE:  cpu time    0.2969: real time    0.2971
    MIXING:  cpu time    0.0006: real time    0.0006
    --------------------------------------------
      LOOP:  cpu time   15.2828: real time   15.3099

 eigenvalue-minimisations  : 24632
 total energy-change (2. order) : 0.9380370E+00  (-0.5365331E+00)
 number of electron     204.0000015 magnetization 
 augmentation part       26.8215429 magnetization 

 Broyden mixing:
  rms(total) = 0.48738E+00    rms(broyden)= 0.48737E+00
  rms(prec ) = 0.78710E+00
  weight for this iteration     100.00

 eigenvalues of (default mixing * dielectric matrix)
  average eigenvalue GAMMA=   0.8280
  1.9344  0.7061  0.7061  0.4561  0.3374

 Free energy of the ion-electron system (eV)
  ---------------------------------------------------
  alpha Z        PSCENC =      1381.42178624
  Ewald energy   TEWEN  =    -12092.38474530
  -Hartree energ DENC   =     -2836.99519976
  -exchange      EXHF   =         0.00000000
  -V(xc)+E(xc)   XCENC  =      -897.54511739
  PAW double counting   =     21217.28153931   -19666.11705222
  entropy T*S    EENTRO =        -0.00475538
[...]
  band No.  band energies     occupation 
      1     -47.0898      2.00000
      2     -47.0801      2.00000
      3     -47.0427      2.00000
      4     -46.9846      2.00000
      5     -46.9466      2.00000
      6     -46.8787      2.00000
      7     -23.6574      2.00000
      8     -23.5853      2.00000
      9     -23.5201      2.00000
     10     -23.4103      2.00000
     11     -23.2941      2.00000
     12     -23.2754      2.00000
     13     -23.2622      2.00000
     14     -23.2280      2.00000
     15     -23.2129      2.00000
     16     -23.1776      2.00000
     17     -23.1727      2.00000
     18     -23.1526      2.00000
     19     -23.0785      2.00000
     20     -23.0497      2.00000
     21     -22.9441      2.00000
     22     -22.9103      2.00000
     23     -22.8431      2.00000
     24     -22.6981      2.00000
     25       0.2098      2.00000
     26       0.6481      2.00000
     27       1.8883      2.00000
     28       2.2907      2.00000
     29       2.3998      2.00000
     30       2.5497      2.00000
     31       2.6471      2.00000
     32       2.7388      2.00000
     33       2.7634      2.00000
     34       2.8561      2.00000
     35       3.0455      2.00000
     36       3.1075      2.00000
     37       3.1713      2.00000
     38       3.1876      2.00000
     39       3.3011      2.00000
     40       3.3224      2.00000
     41       3.3932      2.00000
     42       3.4453      2.00000
     43       3.5316      2.00000
     44       3.5681      2.00000
     45       3.6044      2.00000
     46       3.6450      2.00000
     47       3.7272      2.00000
     48       3.8048      2.00000
     49       3.9237      2.00000
     50       3.9696      2.00000
     51       4.0233      2.00000
     52       4.1310      2.00000
     53       4.1575      2.00000
     54       4.2736      2.00000
     55       4.3065      2.00000
     56       4.3651      2.00000
     57       4.4305      2.00000
     58       4.4527      2.00000
     59       4.7416      2.00000
     60       4.7869      2.00000
     61       4.8668      2.00000
     62       4.9569      2.00000
     63       4.9908      2.00000
     64       5.0476      2.00000
     65       5.1178      2.00000
     66       5.1923      2.00000
     67       5.2536      2.00000
     68       5.2769      2.00000
     69       5.3073      2.00000
     70       5.3623      2.00000
     71       5.3913      2.00000
     72       5.4129      2.00000
     73       5.4493      2.00000
     74       5.4782      2.00000
     75       5.5615      2.00000
     76       5.6000      2.00000
     77       5.6633      2.00000
     78       5.7314      2.00000
     79       5.7943      2.00000
     80       5.8884      2.00000
     81       5.9290      2.00000
     82       5.9678      2.00000
     83       6.0286      2.00000
     84       6.0564      2.00000
     85       6.1102      2.00000
     86       6.1315      2.00000
     87       6.2006      2.00001
     88       6.2355      2.00003
     89       6.2733      2.00008
     90       6.3299      2.00040
     91       6.3598      2.00086
     92       6.4156      2.00313
     93       6.4527      2.00669
     94       6.4850      2.01208
     95       6.5364      2.02683
     96       6.5892      2.04954
     97       6.6653      2.07034
     98       6.7199      2.02607
     99       6.7545      1.94382
    100       6.7971      1.76570
    101       6.8585      1.35716
    102       6.9736      0.43394
    103       6.9894      0.33155
    104       7.0299      0.12529
    105       7.0877     -0.03240
    106       7.2579     -0.03038
    107       7.3151     -0.01282
    108       7.4268     -0.00130
    109       7.6565     -0.00000
    110       7.7360     -0.00000
    111       7.8408     -0.00000
    112       8.0227     -0.00000
    113       8.0867     -0.00000
    114       8.1733     -0.00000
    115       8.2669     -0.00000
    116       8.3129     -0.00000
    117       8.4108     -0.00000
    118       8.4246     -0.00000
    119       8.5173     -0.00000
    120       8.5784     -0.00000
    121       8.6675     -0.00000
    122       8.7472     -0.00000
    123       8.8879     -0.00000
    124       8.9447     -0.00000
    125       8.9776     -0.00000
    126       9.0304     -0.00000
    127       9.1069     -0.00000
    128       9.1593     -0.00000


--------------------------------------------------------------------------------------------------------


 soft charge-density along one line, spin component           1
         0         1         2         3         4         5         6         7         8         9
 total charge-density along one line
 
 pseudopotential strength for first ion, spin component:           1
  5.520 -20.823  -0.003  -0.001  -0.003   0.007   0.003   0.006
-20.823   9.714  -0.005  -0.002  -0.004   0.000   0.000   0.000
 -0.003  -0.005 -10.433   0.000   0.001   6.672  -0.000  -0.001
 -0.001  -0.002   0.000 -10.431  -0.001  -0.000   6.669   0.001
 -0.003  -0.004   0.001  -0.001 -10.433  -0.001   0.001   6.671
  0.007   0.000   6.672  -0.000  -0.001   7.518   0.000   0.001
  0.003   0.000  -0.000   6.669   0.001   0.000   7.520  -0.001
  0.006   0.000  -0.001   0.001   6.671   0.001  -0.001   7.518
  0.001   0.000  -0.002  -0.000  -0.003   0.003   0.000   0.003
  0.000  -0.000  -0.001  -0.003  -0.000   0.002   0.003   0.000
  0.000   0.000   0.001  -0.002   0.001  -0.002   0.002  -0.002
 -0.000  -0.000  -0.000  -0.003  -0.001   0.000   0.003   0.002
 -0.000   0.000   0.002  -0.000  -0.003  -0.003   0.000   0.003
  0.001   0.000  -0.003  -0.000  -0.004   0.004   0.000   0.004
  0.000  -0.000  -0.001  -0.004  -0.000   0.002   0.004   0.000
  0.001   0.001   0.002  -0.002   0.002  -0.002   0.003  -0.002
 -0.001  -0.000  -0.000  -0.003  -0.001   0.000   0.004   0.002
 -0.000   0.000   0.002  -0.000  -0.004  -0.003   0.000   0.004
 total augmentation occupancy for first ion, spin component:           1
  1.997  -0.034  -0.000   0.000  -0.000  -0.000   0.000   0.000   0.001   0.002   0.001  -0.006   0.000  -0.001  -0.002  -0.001
 -0.034   1.515  -0.002   0.003   0.000   0.006  -0.005   0.006   0.019   0.021  -0.026  -0.001  -0.012  -0.009  -0.013   0.010
 -0.000  -0.002   1.999  -0.000   0.000  -0.023   0.000  -0.000   0.005   0.008   0.004  -0.002   0.005  -0.002  -0.004  -0.003
  0.000   0.003  -0.000   1.999   0.000   0.000  -0.023  -0.001  -0.000  -0.007  -0.003   0.001  -0.001  -0.000   0.004   0.002
 -0.000   0.000   0.000   0.000   1.999  -0.000  -0.001  -0.023  -0.011   0.001   0.002   0.007  -0.006   0.006  -0.000  -0.001
 -0.000   0.006  -0.023   0.000  -0.000   0.071   0.001   0.000  -0.001  -0.021  -0.007   0.007  -0.010   0.001   0.011   0.004
  0.000  -0.005   0.000  -0.023  -0.001   0.001   0.068   0.002   0.002   0.027   0.006   0.004   0.002  -0.001  -0.014   0.000
  0.000   0.006  -0.000  -0.001  -0.023   0.000   0.002   0.071   0.033  -0.000  -0.006  -0.019   0.014  -0.016  -0.001   0.001
  0.001   0.019   0.005  -0.000  -0.011  -0.001   0.002   0.033   3.064   0.021   0.010   0.076   0.002  -1.246  -0.019  -0.001
  0.002   0.021   0.008  -0.007   0.001  -0.021   0.027  -0.000   0.021   3.090   0.009   0.036  -0.001  -0.019  -1.247  -0.008
  0.001  -0.026   0.004  -0.003   0.002  -0.007   0.006  -0.006   0.010   0.009   2.647  -0.016  -0.002  -0.001  -0.008  -1.157
 -0.006  -0.001  -0.002   0.001   0.007   0.007   0.004  -0.019   0.076   0.036  -0.016   3.126  -0.040  -0.033  -0.011   0.006
  0.000  -0.012   0.005  -0.001  -0.006  -0.010   0.002   0.014   0.002  -0.001  -0.002  -0.040   2.679  -0.001   0.010   0.006
 -0.001  -0.009  -0.002  -0.000   0.006   0.001  -0.001  -0.016  -1.246  -0.019  -0.001  -0.033  -0.001   0.521   0.011  -0.001
 -0.002  -0.013  -0.004   0.004  -0.000   0.011  -0.014  -0.001  -0.019  -1.247  -0.008  -0.011   0.010   0.011   0.518   0.006
 -0.001   0.010  -0.003   0.002  -0.001   0.004   0.000   0.001  -0.001  -0.008  -1.157   0.006   0.006  -0.001   0.006   0.516
  0.004  -0.006   0.000  -0.001  -0.003  -0.003  -0.001   0.011  -0.033  -0.011   0.006  -1.259   0.016   0.014   0.003  -0.002
 -0.000  -0.000  -0.004   0.000   0.003   0.008  -0.000  -0.004  -0.001   0.010   0.006   0.016  -1.168   0.000  -0.008  -0.006


------------------------ aborting loop because EDIFF is reached ----------------------------------------


    CHARGE:  cpu time    0.2964: real time    0.2966
    FORLOC:  cpu time    0.0034: real time    0.0034
    FORNL :  cpu time    1.8106: real time    1.8126
    STRESS:  cpu time    5.4553: real time    5.4628
    FORCOR:  cpu time    0.0135: real time    0.0135
    FORHAR:  cpu time    0.0054: real time    0.0054
    MIXING:  cpu time    0.0011: real time    0.0011
    OFIELD:  cpu time    0.0000: real time    0.0000

  FORCE on cell =-STRESS in cart. coord.  units (eV):
  Direction    XX          YY          ZZ          XY          YZ          ZX
  --------------------------------------------------------------------------------------
  Alpha Z  1381.42179  1381.42179  1381.42179
  Ewald   -4016.74182 -3993.59530 -4082.07876   -72.92028   148.27885   -21.82381
  Hartree   964.14237   972.89474   909.67047   -81.57721   115.78253   -20.44299
  E(xc)    -921.75788  -921.69069  -921.74239     0.40467     0.07456     0.00597
  Local    -291.71494  -324.36744  -171.92341   156.59076  -265.52226    41.88269
  n-local  -344.57313  -345.65963  -342.38070     3.09298    -1.41967    -0.65629
  augment   245.47255   245.60991   245.09573    -0.63945     0.30551     0.18155
  Kinetic  2981.73997  2983.20665  2979.89790    -3.83740     2.17936     0.45868
  Fock        0.00000     0.00000     0.00000     0.00000     0.00000     0.00000
  -------------------------------------------------------------------------------------
  Total      -2.01110    -2.17998    -2.03936     1.11407    -0.32112    -0.39420
  in kB      -6.61729    -7.17297    -6.71029     3.66573    -1.05662    -1.29709
  external pressure =       -6.83 kB  Pullay stress =        0.00 kB


 VOLUME and BASIS-vectors are now :
 -----------------------------------------------------------------------------
  energy-cutoff  :      400.00
  volume of cell :      486.93
      direct lattice vectors                 reciprocal lattice vectors
     0.000000000  0.000000000  6.380000000    -0.020898642 -0.052246604  0.156739812
     7.975000000  1.595000000  1.595000000     0.125391850  0.000000000  0.000000000
     0.000000000  9.570000000  3.190000000    -0.020898642  0.104493208  0.000000000

  length of vectors
     6.380000000  8.287863114 10.087665736     0.166534770  0.125391850  0.106562581


 FORCES acting on ions
    electron-ion (+dipol)            ewald-force                    non-local-force                 convergence-correction
 -----------------------------------------------------------------------------------------------
   0.928E+02 0.114E+03 -.436E+02   -.934E+02 -.114E+03 0.429E+02   -.132E+00 -.312E+00 0.389E+00   -.218E-01 -.292E-01 -.608E-02
   -.419E+02 -.238E+03 0.912E+02   0.416E+02 0.239E+03 -.912E+02   -.567E-01 -.123E+00 -.150E+00   -.283E-01 0.669E-01 -.469E-01
   -.842E+02 0.222E+03 -.841E+02   0.838E+02 -.223E+03 0.840E+02   0.260E+00 0.271E+00 0.183E-01   -.234E-01 -.774E-01 -.241E-01
   0.216E+03 -.505E+02 -.131E+03   -.216E+03 0.492E+02 0.131E+03   0.126E+00 0.540E+00 -.302E+00   -.736E-01 0.542E-01 -.815E-02
   0.754E+02 0.166E+03 0.207E+03   -.754E+02 -.165E+03 -.208E+03   -.102E+00 -.328E+00 0.444E+00   0.417E-02 -.589E-01 0.397E-01
   -.162E+03 -.135E+03 -.836E+02   0.163E+03 0.136E+03 0.835E+02   -.150E+00 -.445E+00 0.536E-01   0.361E-01 -.299E-02 -.732E-02
   0.116E+02 0.272E+02 0.200E+02   -.118E+02 -.275E+02 -.198E+02   -.116E-01 0.165E+00 0.187E+00   -.605E-02 0.685E-02 0.448E-03
   -.247E+02 -.783E+02 -.422E+02   0.248E+02 0.789E+02 0.421E+02   0.473E-01 0.461E-01 0.406E-01   0.480E-02 0.478E-01 0.216E-01
   -.169E+01 -.368E+01 0.250E+01   0.155E+01 0.374E+01 -.259E+01   -.162E+00 -.536E-02 -.687E-01   -.200E-01 0.314E-02 -.393E-01
   -.965E+02 0.358E+02 -.892E+02   0.967E+02 -.359E+02 0.892E+02   -.214E-02 0.241E+00 -.846E-01   0.312E-01 -.110E-01 0.177E-01
   -.127E+03 0.304E+02 0.892E+02   0.127E+03 -.306E+02 -.892E+02   0.184E+00 0.204E+00 0.103E+00   0.984E-02 -.223E-01 -.173E-01
   0.230E+02 0.740E+02 0.284E+02   -.234E+02 -.738E+02 -.285E+02   -.213E+00 0.556E-01 -.436E-01   -.124E-02 -.228E-01 0.199E-01
   -.726E+02 -.608E+02 -.817E+02   0.723E+02 0.603E+02 0.822E+02   0.348E-01 0.393E-01 0.392E+00   0.131E-01 0.219E-01 0.158E-01
   -.518E+02 -.908E+02 0.817E+02   0.516E+02 0.903E+02 -.822E+02   -.252E+00 0.186E+00 -.386E+00   0.100E-01 0.254E-01 -.158E-01
   0.421E+02 0.215E+02 0.521E+02   -.418E+02 -.220E+02 -.516E+02   -.834E-01 0.128E-01 -.772E-01   -.414E-02 -.242E-01 -.161E-01
   -.314E+02 -.558E+02 0.173E+00   0.313E+02 0.558E+02 -.175E+00   0.234E+00 0.234E+00 -.106E-01   0.822E-02 0.231E-01 0.671E-02
   0.194E+02 -.110E+02 -.591E+02   -.190E+02 0.110E+02 0.591E+02   0.331E+00 0.227E-01 -.118E+00   0.224E-02 0.513E-02 0.476E-02
   -.456E+02 0.559E+02 0.323E+02   0.457E+02 -.560E+02 -.323E+02   0.396E-01 0.287E+00 0.159E-02   0.173E-01 -.222E-01 0.903E-02
   0.557E+02 0.550E+02 -.415E+02   -.556E+02 -.553E+02 0.413E+02   -.812E-01 -.564E-01 -.176E+00   -.154E-02 -.242E-01 0.141E-01
   0.116E+02 -.301E+01 -.132E+00   -.114E+02 0.305E+01 0.140E+00   -.360E+00 -.128E+00 0.429E-01   0.325E-03 0.185E-01 -.574E-02
   0.269E+02 0.549E+02 -.636E+02   -.273E+02 -.543E+02 0.640E+02   0.147E+00 0.852E-01 -.603E-01   -.379E-02 -.246E-01 -.125E-01
   0.319E+02 -.798E+01 0.473E+02   -.314E+02 0.792E+01 -.473E+02   -.814E-01 0.552E-01 0.154E+00   -.406E-03 0.394E-02 -.435E-02
   0.191E+02 -.336E+02 0.212E+02   -.196E+02 0.340E+02 -.214E+02   -.430E-01 0.376E-01 0.388E-01   0.664E-02 -.178E-02 -.101E-01
   0.143E+02 0.744E+02 -.188E+02   -.147E+02 -.743E+02 0.190E+02   -.143E+00 -.852E-01 0.182E-01   -.243E-02 -.222E-01 -.135E-01
   0.496E+02 -.171E+02 -.182E+02   -.495E+02 0.174E+02 0.182E+02   0.517E-01 -.311E+00 -.752E-01   -.738E-02 0.166E-01 0.122E-01
   0.154E+02 -.238E+02 0.183E+02   -.156E+02 0.240E+02 -.182E+02   0.362E+00 -.392E+00 0.994E-01   -.757E-02 0.652E-02 -.121E-01
   -.171E+02 0.268E+02 -.260E+01   0.174E+02 -.269E+02 0.259E+01   -.339E+00 -.133E+00 0.171E+00   0.350E-02 0.685E-02 0.399E-01
   0.100E+03 -.526E+02 0.604E+02   -.100E+03 0.525E+02 -.606E+02   0.144E+00 -.263E+00 -.205E+00   -.249E-01 0.383E-01 0.568E-02
   0.174E+01 -.590E+02 -.321E+02   -.202E+01 0.590E+02 0.321E+02   0.214E+00 0.278E+00 0.208E+00   0.502E-02 -.382E-02 0.155E-01
   -.511E+02 -.356E+02 0.386E+02   0.519E+02 0.359E+02 -.386E+02   0.356E+00 -.953E-01 0.138E-01   0.155E-01 0.822E-02 0.228E-02
 -----------------------------------------------------------------------------------------------
   -.226E+00 -.660E-01 -.604E+00   0.213E-13 -.128E-12 0.142E-12   0.319E+00 0.819E-01 0.619E+00   -.583E-01 0.573E-02 -.140E-01
 
 
 POSITION                                       TOTAL-FORCE (eV/Angst)
 -----------------------------------------------------------------------------------
      0.00000      0.00000      0.00000        -0.686677     -0.456508     -0.293243
      0.00000      3.19000      6.38000        -0.367242      0.669861     -0.141734
      3.19000      6.38000      3.19000        -0.148191     -0.196741     -0.073243
      6.38000      3.19000      3.19000        -0.199655     -0.727200      0.283683
      1.59500      7.97500      7.97500        -0.126256      0.399126     -0.420169
      3.19000      9.57000      9.57000         1.045663     -0.197419     -0.019792
      0.00000      0.00000      3.19000        -0.300837     -0.046014      0.366455
      0.00000      3.19000      3.19000         0.174796      0.639048     -0.004983
      1.59500      4.78500      4.78500        -0.322774      0.050338     -0.198102
      4.78500      7.97500      4.78500         0.166037      0.128531     -0.075883
      4.78500      7.97500      7.97500         0.430294      0.014193      0.089921
      6.38000      9.57000      9.57000        -0.587101      0.257446     -0.166997
      1.59500      1.59500      1.59500        -0.217493     -0.425469      0.887145
      1.59500      1.59500      4.78500        -0.426025     -0.256244     -0.885055
      0.00000      6.38000      6.38000         0.189613     -0.527745      0.447474
      3.19000      3.19000      6.38000         0.149876      0.214898     -0.005203
      4.78500      4.78500      4.78500         0.753578      0.009675     -0.061999
      3.19000      6.38000      6.38000         0.112528      0.189821     -0.010567
      0.00000      6.38000      3.19000        -0.055461     -0.326598     -0.430774
      3.19000      3.19000      3.19000        -0.158581     -0.070576      0.044576
      1.59500      7.97500      4.78500        -0.175774      0.628170      0.385433
      4.78500      4.78500      7.97500         0.404795      0.004745      0.163570
      6.38000      6.38000      6.38000        -0.485670      0.439048     -0.185827
      6.38000      9.57000      6.38000        -0.548777      0.029080      0.182607
      4.78500      1.59500      1.59500         0.116953     -0.063699     -0.073114
      4.78500      1.59500      4.78500         0.189716     -0.231405      0.118231
      1.59500      4.78500      7.97500        -0.063255     -0.230043      0.203849
      6.38000      3.19000      6.38000         0.030246     -0.315389     -0.436460
      6.38000      6.38000      3.19000        -0.060925      0.234146      0.284681
      3.19000      9.57000      6.38000         1.166600      0.162926      0.025521
 -----------------------------------------------------------------------------------
    total drift:                                0.034616      0.021617      0.000754


--------------------------------------------------------------------------------------------------------



  FREE ENERGIE OF THE ION-ELECTRON SYSTEM (eV)
  ---------------------------------------------------
  free  energy   TOTEN  =      -346.25276847 eV

  energy  without entropy=     -346.24307503  energy(sigma->0) =     -346.24953732
 


--------------------------------------------------------------------------------------------------------


    POTLOK:  cpu time    0.0136: real time    0.0136


--------------------------------------------------------------------------------------------------------


 stress matrix after NEB project (eV)
     -2.01110      1.11407     -0.39420
      1.11407     -2.17998     -0.32112
     -0.39420     -0.32112     -2.03936
  FORCES: max atom, RMS     1.178199    0.638943
  FORCE total and by dimension    3.499637    1.166600
  Stress total and by dimension    3.994390    2.179977
 writing wavefunctions
     LOOP+:  cpu time  298.0206: real time  304.5223
    4ORBIT:  cpu time    0.0000: real time    0.0000

 total amount of memory used by VASP MPI-rank0    75755. kBytes
=======================================================================

   base      :      30000. kBytes
   nonlr-proj:       4171. kBytes
   fftplans  :       1097. kBytes
   grid      :       2043. kBytes
   one-center:        124. kBytes
   wavefun   :      38320. kBytes
 
  
  
 General timing and accounting informations for this job:
 ========================================================
  
                  Total CPU time used (sec):      304.786
                            User time (sec):      300.617
                          System time (sec):        4.169
                         Elapsed time (sec):      311.576
  
                   Maximum memory used (kb):      118132.
                   Average memory used (kb):           0.
  
                          Minor page faults:        36148
                          Major page faults:           23
                 Voluntary context switches:          976
