<?xml version="1.0" encoding="ISO-8859-1"?>
<modeling>
 <generator>
  <i name="program" type="string">vasp </i>
  <i name="version" type="string">5.4.4.18Apr17-6-g9f103f2a35  </i>
  <i name="subversion" type="string">(build Aug 09 2018 16:20:53) complex            parallel </i>
  <i name="platform" type="string">LinuxIFC </i>
  <i name="date" type="string">2020 04 12 </i>
  <i name="time" type="string">14:10:29 </i>
 </generator>
 <incar>
  <i type="string" name="SYSTEM"> Nb - Mo - Ta - Ti - W SQS</i>
  <i type="string" name="PREC">normal</i>
  <i type="int" name="IALGO">    38</i>
  <i type="int" name="ICHARG">     2</i>
  <i type="int" name="IBRION">     1</i>
  <i type="int" name="ISYM">     0</i>
  <i name="ENCUT">    400.00000000</i>
  <i type="string" name="LREAL"> Auto</i>
  <i type="int" name="ISMEAR">     1</i>
  <i name="SIGMA">      0.20000000</i>
  <v type="int" name="KPOINT_BSE">    -1     0     0     0</v>
  <i type="string" name="GGA"> PS</i>
 </incar>
 <structure name="primitive_cell" >
  <crystal>
   <varray name="basis" >
    <v>       0.00000000       0.00000000       6.38000000 </v>
    <v>       7.97500000       1.59500000       1.59500000 </v>
    <v>       0.00000000       9.57000000       3.19000000 </v>
   </varray>
   <i name="volume">    486.92638500 </i>
   <varray name="rec_basis" >
    <v>      -0.02089864      -0.05224660       0.15673981 </v>
    <v>       0.12539185       0.00000000       0.00000000 </v>
    <v>      -0.02089864       0.10449321       0.00000000 </v>
   </varray>
  </crystal>
  <varray name="positions" >
   <v>       0.00000000       0.00000000       0.00000000 </v>
   <v>      -0.13333333      -0.20000000      -0.13333333 </v>
   <v>       0.13333333       0.20000000       0.13333333 </v>
   <v>       0.30000000       0.20000000      -0.20000000 </v>
   <v>      -0.30000000      -0.20000000       0.20000000 </v>
   <v>      -0.36666667       0.20000000       0.13333333 </v>
   <v>       0.36666667      -0.20000000      -0.13333333 </v>
   <v>       0.20000000      -0.20000000       0.20000000 </v>
   <v>      -0.20000000       0.20000000      -0.20000000 </v>
   <v>      -0.16666667       0.00000000       0.33333333 </v>
   <v>       0.16666667       0.00000000      -0.33333333 </v>
   <v>      -0.06666667       0.40000000      -0.06666667 </v>
   <v>       0.06666667      -0.40000000       0.06666667 </v>
   <v>      -0.50000000       0.00000000       0.00000000 </v>
   <v>       0.33333333       0.00000000       0.33333333 </v>
   <v>      -0.33333333       0.00000000      -0.33333333 </v>
   <v>      -0.43333333      -0.40000000       0.06666667 </v>
   <v>       0.43333333       0.40000000      -0.06666667 </v>
   <v>       0.10000000       0.40000000      -0.40000000 </v>
   <v>      -0.10000000      -0.40000000       0.40000000 </v>
   <v>       0.23333333      -0.40000000      -0.26666667 </v>
   <v>      -0.23333333       0.40000000       0.26666667 </v>
   <v>      -0.03333333       0.20000000       0.46666667 </v>
   <v>       0.03333333      -0.20000000      -0.46666667 </v>
   <v>       0.46666667       0.20000000       0.46666667 </v>
   <v>      -0.46666667      -0.20000000      -0.46666667 </v>
   <v>      -0.26666667      -0.40000000      -0.26666667 </v>
   <v>       0.26666667       0.40000000       0.26666667 </v>
   <v>       0.40000000      -0.40000000       0.40000000 </v>
   <v>      -0.40000000       0.40000000      -0.40000000 </v>
  </varray>
 </structure>
 <varray name="primitive_index" >
  <v type="int" >        1 </v>
  <v type="int" >       12 </v>
  <v type="int" >       13 </v>
  <v type="int" >       21 </v>
  <v type="int" >       28 </v>
  <v type="int" >       14 </v>
  <v type="int" >       24 </v>
  <v type="int" >        4 </v>
  <v type="int" >        5 </v>
  <v type="int" >        2 </v>
  <v type="int" >       19 </v>
  <v type="int" >        6 </v>
  <v type="int" >       25 </v>
  <v type="int" >        7 </v>
  <v type="int" >        8 </v>
  <v type="int" >       15 </v>
  <v type="int" >       26 </v>
  <v type="int" >       30 </v>
  <v type="int" >        3 </v>
  <v type="int" >       22 </v>
  <v type="int" >       10 </v>
  <v type="int" >       16 </v>
  <v type="int" >       27 </v>
  <v type="int" >       29 </v>
  <v type="int" >        9 </v>
  <v type="int" >       23 </v>
  <v type="int" >       11 </v>
  <v type="int" >       20 </v>
  <v type="int" >       17 </v>
  <v type="int" >       18 </v>
 </varray>
 <kpoints>
  <generation param="Gamma">
   <v type="int" name="divisions">       5        5        5 </v>
   <v name="usershift">      0.00000000       0.00000000       0.00000000 </v>
   <v name="genvec1">      0.20000000       0.00000000       0.00000000 </v>
   <v name="genvec2">      0.00000000       0.20000000       0.00000000 </v>
   <v name="genvec3">      0.00000000       0.00000000       0.20000000 </v>
   <v name="shift">      0.00000000       0.00000000       0.00000000 </v>
  </generation>
  <varray name="kpointlist" >
   <v>       0.00000000       0.00000000       0.00000000 </v>
   <v>       0.20000000       0.00000000       0.00000000 </v>
   <v>       0.40000000       0.00000000       0.00000000 </v>
   <v>       0.00000000       0.20000000       0.00000000 </v>
   <v>       0.20000000       0.20000000       0.00000000 </v>
   <v>       0.40000000       0.20000000       0.00000000 </v>
   <v>      -0.40000000       0.20000000       0.00000000 </v>
   <v>      -0.20000000       0.20000000       0.00000000 </v>
   <v>       0.00000000       0.40000000       0.00000000 </v>
   <v>       0.20000000       0.40000000       0.00000000 </v>
   <v>       0.40000000       0.40000000       0.00000000 </v>
   <v>      -0.40000000       0.40000000       0.00000000 </v>
   <v>      -0.20000000       0.40000000       0.00000000 </v>
   <v>       0.00000000       0.00000000       0.20000000 </v>
   <v>       0.20000000      -0.00000000       0.20000000 </v>
   <v>       0.40000000       0.00000000       0.20000000 </v>
   <v>      -0.40000000       0.00000000       0.20000000 </v>
   <v>      -0.20000000       0.00000000       0.20000000 </v>
   <v>       0.00000000       0.20000000       0.20000000 </v>
   <v>       0.20000000       0.20000000       0.20000000 </v>
   <v>       0.40000000       0.20000000       0.20000000 </v>
   <v>      -0.40000000       0.20000000       0.20000000 </v>
   <v>      -0.20000000       0.20000000       0.20000000 </v>
   <v>       0.00000000       0.40000000       0.20000000 </v>
   <v>       0.20000000       0.40000000       0.20000000 </v>
   <v>       0.40000000       0.40000000       0.20000000 </v>
   <v>      -0.40000000       0.40000000       0.20000000 </v>
   <v>      -0.20000000       0.40000000       0.20000000 </v>
   <v>       0.00000000      -0.40000000       0.20000000 </v>
   <v>       0.20000000      -0.40000000       0.20000000 </v>
   <v>       0.40000000      -0.40000000       0.20000000 </v>
   <v>      -0.40000000      -0.40000000       0.20000000 </v>
   <v>      -0.20000000      -0.40000000       0.20000000 </v>
   <v>       0.00000000      -0.20000000       0.20000000 </v>
   <v>       0.20000000      -0.20000000       0.20000000 </v>
   <v>       0.40000000      -0.20000000       0.20000000 </v>
   <v>      -0.40000000      -0.20000000       0.20000000 </v>
   <v>      -0.20000000      -0.20000000       0.20000000 </v>
   <v>       0.00000000       0.00000000       0.40000000 </v>
   <v>       0.20000000       0.00000000       0.40000000 </v>
   <v>       0.40000000      -0.00000000       0.40000000 </v>
   <v>      -0.40000000       0.00000000       0.40000000 </v>
   <v>      -0.20000000       0.00000000       0.40000000 </v>
   <v>       0.00000000       0.20000000       0.40000000 </v>
   <v>       0.20000000       0.20000000       0.40000000 </v>
   <v>       0.40000000       0.20000000       0.40000000 </v>
   <v>      -0.40000000       0.20000000       0.40000000 </v>
   <v>      -0.20000000       0.20000000       0.40000000 </v>
   <v>       0.00000000       0.40000000       0.40000000 </v>
   <v>       0.20000000       0.40000000       0.40000000 </v>
   <v>       0.40000000       0.40000000       0.40000000 </v>
   <v>      -0.40000000       0.40000000       0.40000000 </v>
   <v>      -0.20000000       0.40000000       0.40000000 </v>
   <v>       0.00000000      -0.40000000       0.40000000 </v>
   <v>       0.20000000      -0.40000000       0.40000000 </v>
   <v>       0.40000000      -0.40000000       0.40000000 </v>
   <v>      -0.40000000      -0.40000000       0.40000000 </v>
   <v>      -0.20000000      -0.40000000       0.40000000 </v>
   <v>       0.00000000      -0.20000000       0.40000000 </v>
   <v>       0.20000000      -0.20000000       0.40000000 </v>
   <v>       0.40000000      -0.20000000       0.40000000 </v>
   <v>      -0.40000000      -0.20000000       0.40000000 </v>
   <v>      -0.20000000      -0.20000000       0.40000000 </v>
  </varray>
  <varray name="weights" >
   <v>       0.00800000 </v>
   <v>       0.01600000 </v>
   <v>       0.01600000 </v>
   <v>       0.01600000 </v>
   <v>       0.01600000 </v>
   <v>       0.01600000 </v>
   <v>       0.01600000 </v>
   <v>       0.01600000 </v>
   <v>       0.01600000 </v>
   <v>       0.01600000 </v>
   <v>       0.01600000 </v>
   <v>       0.01600000 </v>
   <v>       0.01600000 </v>
   <v>       0.01600000 </v>
   <v>       0.01600000 </v>
   <v>       0.01600000 </v>
   <v>       0.01600000 </v>
   <v>       0.01600000 </v>
   <v>       0.01600000 </v>
   <v>       0.01600000 </v>
   <v>       0.01600000 </v>
   <v>       0.01600000 </v>
   <v>       0.01600000 </v>
   <v>       0.01600000 </v>
   <v>       0.01600000 </v>
   <v>       0.01600000 </v>
   <v>       0.01600000 </v>
   <v>       0.01600000 </v>
   <v>       0.01600000 </v>
   <v>       0.01600000 </v>
   <v>       0.01600000 </v>
   <v>       0.01600000 </v>
   <v>       0.01600000 </v>
   <v>       0.01600000 </v>
   <v>       0.01600000 </v>
   <v>       0.01600000 </v>
   <v>       0.01600000 </v>
   <v>       0.01600000 </v>
   <v>       0.01600000 </v>
   <v>       0.01600000 </v>
   <v>       0.01600000 </v>
   <v>       0.01600000 </v>
   <v>       0.01600000 </v>
   <v>       0.01600000 </v>
   <v>       0.01600000 </v>
   <v>       0.01600000 </v>
   <v>       0.01600000 </v>
   <v>       0.01600000 </v>
   <v>       0.01600000 </v>
   <v>       0.01600000 </v>
   <v>       0.01600000 </v>
   <v>       0.01600000 </v>
   <v>       0.01600000 </v>
   <v>       0.01600000 </v>
   <v>       0.01600000 </v>
   <v>       0.01600000 </v>
   <v>       0.01600000 </v>
   <v>       0.01600000 </v>
   <v>       0.01600000 </v>
   <v>       0.01600000 </v>
   <v>       0.01600000 </v>
   <v>       0.01600000 </v>
   <v>       0.01600000 </v>
  </varray>
 </kpoints>
 <parameters>
  <separator name="general" >
   <i type="string" name="SYSTEM">Nb - Mo - Ta - Ti - W SQS</i>
   <i type="logical" name="LCOMPAT"> F  </i>
  </separator>
  <separator name="electronic" >
   <i type="string" name="PREC">normal</i>
   <i name="ENMAX">    400.00000000</i>
   <i name="ENAUG">    455.65900000</i>
   <i name="EDIFF">      0.00010000</i>
   <i type="int" name="IALGO">    38</i>
   <i type="int" name="IWAVPR">    10</i>
   <i type="int" name="NBANDS">   128</i>
   <i name="NELECT">    204.00000000</i>
   <i type="int" name="TURBO">     0</i>
   <i type="int" name="IRESTART">     0</i>
   <i type="int" name="NREBOOT">     0</i>
   <i type="int" name="NMIN">     0</i>
   <i name="EREF">      0.00000000</i>
   <separator name="electronic smearing" >
    <i type="int" name="ISMEAR">     1</i>
    <i name="SIGMA">      0.20000000</i>
    <i name="KSPACING">      0.50000000</i>
    <i type="logical" name="KGAMMA"> T  </i>
   </separator>
   <separator name="electronic projectors" >
    <i type="logical" name="LREAL"> T  </i>
    <v name="ROPT">     -0.00050000     -0.00050000     -0.00050000     -0.00050000     -0.00050000</v>
    <i type="int" name="LMAXPAW">  -100</i>
    <i type="int" name="LMAXMIX">     2</i>
    <i type="logical" name="NLSPLINE"> F  </i>
   </separator>
   <separator name="electronic startup" >
    <i type="int" name="ISTART">     0</i>
    <i type="int" name="ICHARG">     2</i>
    <i type="int" name="INIWAV">     1</i>
   </separator>
   <separator name="electronic spin" >
    <i type="int" name="ISPIN">     1</i>
    <i type="logical" name="LNONCOLLINEAR"> F  </i>
    <v name="MAGMOM">      1.00000000      1.00000000      1.00000000      1.00000000      1.00000000      1.00000000      1.00000000      1.00000000      1.00000000      1.00000000      1.00000000      1.00000000      1.00000000      1.00000000      1.00000000      1.00000000      1.00000000      1.00000000      1.00000000      1.00000000
      1.00000000      1.00000000      1.00000000      1.00000000      1.00000000      1.00000000      1.00000000      1.00000000      1.00000000      1.00000000</v>
    <i name="NUPDOWN">     -1.00000000</i>
    <i type="logical" name="LSORBIT"> F  </i>
    <v name="SAXIS">      0.00000000      0.00000000      1.00000000</v>
    <i type="logical" name="LSPIRAL"> F  </i>
    <v name="QSPIRAL">      0.00000000      0.00000000      0.00000000</v>
    <i type="logical" name="LZEROZ"> F  </i>
   </separator>
   <separator name="electronic exchange-correlation" >
    <i type="logical" name="LASPH"> F  </i>
    <i type="logical" name="LMETAGGA"> F  </i>
   </separator>
   <separator name="electronic convergence" >
    <i type="int" name="NELM">    60</i>
    <i type="int" name="NELMDL">    -5</i>
    <i type="int" name="NELMIN">     2</i>
    <i name="ENINI">    400.00000000</i>
    <separator name="electronic convergence detail" >
     <i type="logical" name="LDIAG"> T  </i>
     <i type="logical" name="LSUBROT"> F  </i>
     <i name="WEIMIN">      0.00000000</i>
     <i name="EBREAK">      0.00000020</i>
     <i name="DEPER">      0.30000000</i>
     <i type="int" name="NRMM">     4</i>
     <i name="TIME">      0.40000000</i>
    </separator>
   </separator>
   <separator name="electronic mixer" >
    <i name="AMIX">      0.40000000</i>
    <i name="BMIX">      1.00000000</i>
    <i name="AMIN">      0.10000000</i>
    <i name="AMIX_MAG">      1.60000000</i>
    <i name="BMIX_MAG">      1.00000000</i>
    <separator name="electronic mixer details" >
     <i type="int" name="IMIX">     4</i>
     <i type="logical" name="MIXFIRST"> F  </i>
     <i type="int" name="MAXMIX">   -45</i>
     <i name="WC">    100.00000000</i>
     <i type="int" name="INIMIX">     1</i>
     <i type="int" name="MIXPRE">     1</i>
     <i type="int" name="MREMOVE">     5</i>
    </separator>
   </separator>
   <separator name="electronic dipolcorrection" >
    <i type="logical" name="LDIPOL"> F  </i>
    <i type="logical" name="LMONO"> F  </i>
    <i type="int" name="IDIPOL">     0</i>
    <i name="EPSILON">      1.00000000</i>
    <v name="DIPOL">   -100.00000000   -100.00000000   -100.00000000</v>
    <i name="EFIELD">      0.00000000</i>
   </separator>
  </separator>
  <separator name="grids" >
   <i type="int" name="NGX">    32</i>
   <i type="int" name="NGY">    42</i>
   <i type="int" name="NGZ">    50</i>
   <i type="int" name="NGXF">    64</i>
   <i type="int" name="NGYF">    84</i>
   <i type="int" name="NGZF">   100</i>
   <i type="logical" name="ADDGRID"> F  </i>
  </separator>
  <separator name="ionic" >
   <i type="int" name="NSW">     0</i>
   <i type="int" name="IBRION">    -1</i>
   <i type="int" name="MDALGO">     0</i>
   <i type="int" name="ISIF">     2</i>
   <i name="PSTRESS">      0.00000000</i>
   <i name="EDIFFG">      0.00100000</i>
   <i type="int" name="NFREE">     0</i>
   <i name="POTIM">      0.50000000</i>
   <i name="SMASS">     -3.00000000</i>
   <i name="SCALEE">      1.00000000</i>
  </separator>
  <separator name="ionic md" >
   <i name="TEBEG">      0.00010000</i>
   <i name="TEEND">      0.00010000</i>
   <i type="int" name="NBLOCK">     1</i>
   <i type="int" name="KBLOCK">     1</i>
   <i type="int" name="NPACO">   256</i>
   <i name="APACO">     16.00000000</i>
  </separator>
  <separator name="symmetry" >
   <i type="int" name="ISYM">     0</i>
   <i name="SYMPREC">      0.00001000</i>
  </separator>
  <separator name="dos" >
   <i type="int" name="LORBIT">     0</i>
   <v name="RWIGS">     -1.00000000     -1.00000000     -1.00000000     -1.00000000     -1.00000000</v>
   <i type="int" name="NEDOS">   301</i>
   <i name="EMIN">     10.00000000</i>
   <i name="EMAX">    -10.00000000</i>
   <i name="EFERMI">      0.00000000</i>
  </separator>
  <separator name="writing" >
   <i type="int" name="NWRITE">     2</i>
   <i type="logical" name="LWAVE"> T  </i>
   <i type="logical" name="LDOWNSAMPLE"> F  </i>
   <i type="logical" name="LCHARG"> T  </i>
   <i type="logical" name="LPARD"> F  </i>
   <i type="logical" name="LVTOT"> F  </i>
   <i type="logical" name="LVHAR"> F  </i>
   <i type="logical" name="LELF"> F  </i>
   <i type="logical" name="LOPTICS"> F  </i>
   <v name="STM">      0.00000000      0.00000000      0.00000000      0.00000000      0.00000000      0.00000000      0.00000000</v>
  </separator>
  <separator name="performance" >
   <i type="int" name="NPAR">     8</i>
   <i type="int" name="NSIM">     4</i>
   <i type="int" name="NBLK">    -1</i>
   <i type="logical" name="LPLANE"> T  </i>
   <i type="logical" name="LSCALAPACK"> T  </i>
   <i type="logical" name="LSCAAWARE"> F  </i>
   <i type="logical" name="LSCALU"> F  </i>
   <i type="logical" name="LASYNC"> F  </i>
   <i type="logical" name="LORBITALREAL"> F  </i>
  </separator>
  <separator name="miscellaneous" >
   <i type="int" name="IDIOT">     3</i>
   <i type="int" name="ISPECIAL">     0</i>
   <i type="logical" name="LMUSIC"> F  </i>
   <v name="POMASS">     92.91000000     95.94000000    180.94800000     47.88000000    183.85000000</v>
   <v name="DARWINR">      0.00000000      0.00000000      0.00000000      0.00000000      0.00000000</v>
   <v name="DARWINV">      1.00000000      1.00000000      1.00000000      1.00000000      1.00000000</v>
   <i type="logical" name="LCORR"> T  </i>
  </separator>
  <i type="logical" name="GGA_COMPAT"> T  </i>
  <i type="logical" name="LBERRY"> F  </i>
  <i type="int" name="ICORELEVEL">     0</i>
  <i type="logical" name="LDAU"> F  </i>
  <i type="int" name="I_CONSTRAINED_M">     0</i>
  <separator name="electronic exchange-correlation" >
   <i type="string" name="GGA">PS</i>
   <i type="int" name="VOSKOWN">     0</i>
   <i type="logical" name="LHFCALC"> F  </i>
   <i type="string" name="PRECFOCK"></i>
   <i type="logical" name="LSYMGRAD"> F  </i>
   <i type="logical" name="LHFONE"> F  </i>
   <i type="logical" name="LRHFCALC"> F  </i>
   <i type="logical" name="LTHOMAS"> F  </i>
   <i type="logical" name="LMODELHF"> F  </i>
   <i name="ENCUT4O">     -1.00000000</i>
   <i type="int" name="EXXOEP">     0</i>
   <i type="int" name="FOURORBIT">     0</i>
   <i name="AEXX">      0.00000000</i>
   <i name="HFALPHA">      0.00000000</i>
   <i name="MCALPHA">      0.00000000</i>
   <i name="ALDAX">      1.00000000</i>
   <i name="AGGAX">      1.00000000</i>
   <i name="ALDAC">      1.00000000</i>
   <i name="AGGAC">      1.00000000</i>
   <i type="int" name="NKREDX">     1</i>
   <i type="int" name="NKREDY">     1</i>
   <i type="int" name="NKREDZ">     1</i>
   <i type="logical" name="SHIFTRED"> F  </i>
   <i type="logical" name="ODDONLY"> F  </i>
   <i type="logical" name="EVENONLY"> F  </i>
   <i type="int" name="LMAXFOCK">     0</i>
   <i type="int" name="NMAXFOCKAE">     0</i>
   <i type="logical" name="LFOCKAEDFT"> F  </i>
   <i name="HFSCREEN">      0.00000000</i>
   <i name="HFSCREENC">      0.00000000</i>
   <i type="int" name="NBANDSGWLOW">     0</i>
  </separator>
  <separator name="vdW DFT" >
   <i type="logical" name="LUSE_VDW"> F  </i>
   <i name="Zab_VDW">     -0.84910000</i>
   <i name="PARAM1">      0.12340000</i>
   <i name="PARAM2">      1.00000000</i>
   <i name="PARAM3">      0.00000000</i>
  </separator>
  <separator name="model GW" >
   <i type="int" name="MODEL_GW">     0</i>
   <i name="MODEL_EPS0">      9.73852770</i>
   <i name="MODEL_ALPHA">      1.00000000</i>
  </separator>
  <separator name="linear response parameters" >
   <i type="logical" name="LEPSILON"> F  </i>
   <i type="logical" name="LRPA"> F  </i>
   <i type="logical" name="LNABLA"> F  </i>
   <i type="logical" name="LVEL"> F  </i>
   <i type="int" name="KINTER">     0</i>
   <i name="CSHIFT">      0.10000000</i>
   <i name="OMEGAMAX">     -1.00000000</i>
   <i name="DEG_THRESHOLD">      0.00200000</i>
   <i name="RTIME">     -0.10000000</i>
   <i name="WPLASMAI">      0.00000000</i>
   <v name="DFIELD">      0.00000000      0.00000000      0.00000000</v>
   <v name="WPLASMA">      0.00000000      0.00000000      0.00000000      0.00000000      0.00000000      0.00000000      0.00000000      0.00000000      0.00000000</v>
  </separator>
  <separator name="orbital magnetization" >
   <i type="logical" name="NUCIND"> F  </i>
   <v name="MAGPOS">      0.00000000      0.00000000      0.00000000</v>
   <i type="logical" name="LNICSALL"> T  </i>
   <i type="logical" name="ORBITALMAG"> F  </i>
   <i type="logical" name="LMAGBLOCH"> F  </i>
   <i type="logical" name="LCHIMAG"> F  </i>
   <i type="logical" name="LGAUGE"> T  </i>
   <i type="int" name="MAGATOM">     0</i>
   <v name="MAGDIPOL">      0.00000000      0.00000000      0.00000000</v>
   <v name="AVECCONST">      0.00000000      0.00000000      0.00000000</v>
  </separator>
  <separator name="response functions" >
   <i type="logical" name="LADDER"> F  </i>
   <i type="logical" name="LRPAFORCE"> F  </i>
   <i type="logical" name="LFXC"> F  </i>
   <i type="logical" name="LHARTREE"> T  </i>
   <i type="int" name="IBSE">     0</i>
   <v type="int" name="KPOINT">    -1     0     0     0</v>
   <i type="logical" name="LTCTE"> F  </i>
   <i type="logical" name="LTETE"> F  </i>
   <i type="logical" name="LTRIPLET"> F  </i>
   <i type="logical" name="LFXCEPS"> F  </i>
   <i type="logical" name="LFXHEG"> F  </i>
   <i type="int" name="NATURALO">     2</i>
   <i type="logical" name="L2ORDER"> F  </i>
   <i type="logical" name="LMP2LT"> F  </i>
   <i type="logical" name="LUSEW"> F  </i>
   <i name="ENCUTGW">     -2.00000000</i>
   <i name="ENCUTGWSOFT">     -2.00000000</i>
   <i name="ENCUTLF">     -1.00000000</i>
   <i type="int" name="LMAXMP2">    -1</i>
   <i name="SCISSOR">      0.00000000</i>
   <i type="int" name="NOMEGA">     0</i>
   <i type="int" name="NOMEGAR">     0</i>
   <i type="int" name="NBANDSGW">    -1</i>
   <i type="int" name="NBANDSO">    -1</i>
   <i type="int" name="NBANDSV">    -1</i>
   <i type="int" name="NELM">     1</i>
   <i type="int" name="NELMHF">     1</i>
   <i type="int" name="DIM">     3</i>
   <i type="int" name="ANTIRES">     0</i>
   <i name="OMEGAMAX">    -30.00000000</i>
   <i name="OMEGAMIN">    -30.00000000</i>
   <i name="OMEGATL">   -200.00000000</i>
   <i type="int" name="OMEGAGRID">   140</i>
   <i name="CSHIFT">     -0.10000000</i>
   <i type="logical" name="SELFENERGY"> F  </i>
   <i type="logical" name="LSPECTRAL"> F  </i>
   <i type="logical" name="LSPECTRALGW"> F  </i>
   <i type="logical" name="LSINGLES"> F  </i>
   <i type="logical" name="LFERMIGW"> F  </i>
   <i type="logical" name="ODDONLYGW"> F  </i>
   <i type="logical" name="EVENONLYGW"> F  </i>
   <i type="int" name="NKREDLFX">     1</i>
   <i type="int" name="NKREDLFY">     1</i>
   <i type="int" name="NKREDLFZ">     1</i>
   <i type="int" name="MAXMEM">  2800</i>
   <i type="int" name="TELESCOPE">     0</i>
   <i type="int" name="TAUPAR">     1</i>
   <i type="int" name="OMEGAPAR">    -1</i>
   <i name="LAMBDA">      1.00000000</i>
  </separator>
  <separator name="External order field" >
   <i name="OFIELD_KAPPA">      0.00000000</i>
   <v name="OFIELD_K">      0.00000000      0.00000000      0.00000000</v>
   <i name="OFIELD_Q6_NEAR">      0.00000000</i>
   <i name="OFIELD_Q6_FAR">      0.00000000</i>
   <i name="OFIELD_A">      0.00000000</i>
  </separator>
  <separator name="solvation model" >
   <i type="logical" name="LSOL"> F  </i>
  </separator>
 </parameters>
 <atominfo>
  <atoms>      30 </atoms>
  <types>       5 </types>
  <array name="atoms" >
   <dimension dim="1">ion</dimension>
   <field type="string">element</field>
   <field type="int">atomtype</field>
   <set>
    <rc><c>Nb</c><c>   1</c></rc>
    <rc><c>Nb</c><c>   1</c></rc>
    <rc><c>Nb</c><c>   1</c></rc>
    <rc><c>Nb</c><c>   1</c></rc>
    <rc><c>Nb</c><c>   1</c></rc>
    <rc><c>Nb</c><c>   1</c></rc>
    <rc><c>Mo</c><c>   2</c></rc>
    <rc><c>Mo</c><c>   2</c></rc>
    <rc><c>Mo</c><c>   2</c></rc>
    <rc><c>Mo</c><c>   2</c></rc>
    <rc><c>Mo</c><c>   2</c></rc>
    <rc><c>Mo</c><c>   2</c></rc>
    <rc><c>Ta</c><c>   3</c></rc>
    <rc><c>Ta</c><c>   3</c></rc>
    <rc><c>Ta</c><c>   3</c></rc>
    <rc><c>Ta</c><c>   3</c></rc>
    <rc><c>Ta</c><c>   3</c></rc>
    <rc><c>Ta</c><c>   3</c></rc>
    <rc><c>Ti</c><c>   4</c></rc>
    <rc><c>Ti</c><c>   4</c></rc>
    <rc><c>Ti</c><c>   4</c></rc>
    <rc><c>Ti</c><c>   4</c></rc>
    <rc><c>Ti</c><c>   4</c></rc>
    <rc><c>Ti</c><c>   4</c></rc>
    <rc><c>W </c><c>   5</c></rc>
    <rc><c>W </c><c>   5</c></rc>
    <rc><c>W </c><c>   5</c></rc>
    <rc><c>W </c><c>   5</c></rc>
    <rc><c>W </c><c>   5</c></rc>
    <rc><c>W </c><c>   5</c></rc>
   </set>
  </array>
  <array name="atomtypes" >
   <dimension dim="1">type</dimension>
   <field type="int">atomspertype</field>
   <field type="string">element</field>
   <field>mass</field>
   <field>valence</field>
   <field type="string">pseudopotential</field>
   <set>
    <rc><c>   6</c><c>Nb</c><c>     92.91000000</c><c>     13.00000000</c><c>  PAW_PBE Nb_sv 25May2007               </c></rc>
    <rc><c>   6</c><c>Mo</c><c>     95.94000000</c><c>      6.00000000</c><c>  PAW_PBE Mo 08Apr2002                  </c></rc>
    <rc><c>   6</c><c>Ta</c><c>    180.94800000</c><c>      5.00000000</c><c>  PAW_PBE Ta 17Jan2003                  </c></rc>
    <rc><c>   6</c><c>Ti</c><c>     47.88000000</c><c>      4.00000000</c><c>  PAW_PBE Ti 08Apr2002                  </c></rc>
    <rc><c>   6</c><c>W </c><c>    183.85000000</c><c>      6.00000000</c><c>  PAW_PBE W 08Apr2002                   </c></rc>
   </set>
  </array>
 </atominfo>
 <structure name="initialpos" >
  <crystal>
   <varray name="basis" >
    <v>       0.00000000       0.00000000       6.38000000 </v>
    <v>       7.97500000       1.59500000       1.59500000 </v>
    <v>       0.00000000       9.57000000       3.19000000 </v>
   </varray>
   <i name="volume">    486.92638500 </i>
   <varray name="rec_basis" >
    <v>      -0.02089864      -0.05224660       0.15673981 </v>
    <v>       0.12539185       0.00000000       0.00000000 </v>
    <v>      -0.02089864       0.10449321       0.00000000 </v>
   </varray>
  </crystal>
  <varray name="positions" >
   <v>       0.00000000       0.00000000       0.00000000 </v>
   <v>       0.83333333       0.00000000       0.33333333 </v>
   <v>       0.10000000       0.40000000       0.60000000 </v>
   <v>       0.20000000       0.80000000       0.20000000 </v>
   <v>       0.80000000       0.20000000       0.80000000 </v>
   <v>       0.93333333       0.40000000       0.93333333 </v>
   <v>       0.50000000       0.00000000       0.00000000 </v>
   <v>       0.33333333       0.00000000       0.33333333 </v>
   <v>       0.46666667       0.20000000       0.46666667 </v>
   <v>       0.23333333       0.60000000       0.73333333 </v>
   <v>       0.73333333       0.60000000       0.73333333 </v>
   <v>       0.86666667       0.80000000       0.86666667 </v>
   <v>       0.13333333       0.20000000       0.13333333 </v>
   <v>       0.63333333       0.20000000       0.13333333 </v>
   <v>       0.66666667       0.00000000       0.66666667 </v>
   <v>       0.76666667       0.40000000       0.26666667 </v>
   <v>       0.40000000       0.60000000       0.40000000 </v>
   <v>       0.60000000       0.40000000       0.60000000 </v>
   <v>       0.16666667       0.00000000       0.66666667 </v>
   <v>       0.26666667       0.40000000       0.26666667 </v>
   <v>       0.30000000       0.20000000       0.80000000 </v>
   <v>       0.90000000       0.60000000       0.40000000 </v>
   <v>       0.53333333       0.80000000       0.53333333 </v>
   <v>       0.36666667       0.80000000       0.86666667 </v>
   <v>       0.06666667       0.60000000       0.06666667 </v>
   <v>       0.56666667       0.60000000       0.06666667 </v>
   <v>       0.96666667       0.20000000       0.46666667 </v>
   <v>       0.70000000       0.80000000       0.20000000 </v>
   <v>       0.03333333       0.80000000       0.53333333 </v>
   <v>       0.43333333       0.40000000       0.93333333 </v>
  </varray>
 </structure>
 <calculation>
  <scstep>
   <time name="dav">   10.64   10.67</time>
   <time name="total">   10.66   10.71</time>
   <energy>
    <i name="alphaZ">   1381.42178624 </i>
    <i name="ewald"> -12092.38474530 </i>
    <i name="hartreedc">  -3004.59813475 </i>
    <i name="XCdc">   -902.57770117 </i>
    <i name="pawpsdc">  12303.85264859 </i>
    <i name="pawaedc"> -10739.97191893 </i>
    <i name="eentropy">      0.00323014 </i>
    <i name="bandstr">   1467.61084057 </i>
    <i name="atom">  13210.85262565 </i>
    <i name="e_fr_energy">   1624.20863104 </i>
    <i name="e_wo_entrp">   1624.20540090 </i>
    <i name="e_0_energy">   1624.20755433 </i>
   </energy>
  </scstep>
  <scstep>
   <time name="dav">   10.60   10.62</time>
   <time name="total">   10.60   10.62</time>
   <energy>
    <i name="e_fr_energy">    -50.12948117 </i>
    <i name="e_wo_entrp">    -50.13181416 </i>
    <i name="e_0_energy">    -50.13025884 </i>
   </energy>
  </scstep>
  <scstep>
   <time name="dav">   16.90   16.94</time>
   <time name="total">   16.91   16.94</time>
   <energy>
    <i name="e_fr_energy">   -334.72850381 </i>
    <i name="e_wo_entrp">   -334.72847074 </i>
    <i name="e_0_energy">   -334.72849278 </i>
   </energy>
  </scstep>
  <scstep>
   <time name="dav">   15.38   15.53</time>
   <time name="total">   15.38   15.54</time>
   <energy>
    <i name="e_fr_energy">   -366.31638180 </i>
    <i name="e_wo_entrp">   -366.32720628 </i>
    <i name="e_0_energy">   -366.31998996 </i>
   </energy>
  </scstep>
  <scstep>
   <time name="dav">   16.80   16.83</time>
   <time name="total">   17.11   17.14</time>
   <energy>
    <i name="e_fr_energy">   -368.96039262 </i>
    <i name="e_wo_entrp">   -368.97061074 </i>
    <i name="e_0_energy">   -368.96379866 </i>
   </energy>
  </scstep>
  <scstep>
   <time name="dav">   14.41   14.44</time>
   <time name="total">   14.73   14.76</time>
   <energy>
    <i name="e_fr_energy">   -357.78034887 </i>
    <i name="e_wo_entrp">   -357.77309774 </i>
    <i name="e_0_energy">   -357.77793183 </i>
   </energy>
  </scstep>
  <scstep>
   <time name="dav">   14.35   14.38</time>
   <time name="total">   14.67   14.70</time>
   <energy>
    <i name="e_fr_energy">   -372.32909632 </i>
    <i name="e_wo_entrp">   -372.33969288 </i>
    <i name="e_0_energy">   -372.33262850 </i>
   </energy>
  </scstep>
  <scstep>
   <time name="dav">   13.72   13.74</time>
   <time name="total">   14.04   14.07</time>
   <energy>
    <i name="e_fr_energy">   -352.57562603 </i>
    <i name="e_wo_entrp">   -352.58181901 </i>
    <i name="e_0_energy">   -352.57769036 </i>
   </energy>
  </scstep>
  <scstep>
   <time name="dav">   14.22   14.24</time>
   <time name="total">   14.53   14.56</time>
   <energy>
    <i name="e_fr_energy">   -347.48667564 </i>
    <i name="e_wo_entrp">   -347.48848631 </i>
    <i name="e_0_energy">   -347.48727919 </i>
   </energy>
  </scstep>
  <scstep>
   <time name="dav">   14.97   14.99</time>
   <time name="total">   15.28   15.31</time>
   <energy>
    <i name="e_fr_energy">   -346.54863859 </i>
    <i name="e_wo_entrp">   -346.54388321 </i>
    <i name="e_0_energy">   -346.54705347 </i>
   </energy>
  </scstep>
  <scstep>
   <time name="dav">   14.34   14.36</time>
   <time name="total">   14.67   14.69</time>
   <energy>
    <i name="e_fr_energy">   -346.31427217 </i>
    <i name="e_wo_entrp">   -346.30365741 </i>
    <i name="e_0_energy">   -346.31073391 </i>
   </energy>
  </scstep>
  <scstep>
   <time name="dav">   14.72   14.75</time>
   <time name="total">   15.04   15.06</time>
   <energy>
    <i name="e_fr_energy">   -346.30769704 </i>
    <i name="e_wo_entrp">   -346.30082837 </i>
    <i name="e_0_energy">   -346.30540749 </i>
   </energy>
  </scstep>
  <scstep>
   <time name="dav">   15.00   15.03</time>
   <time name="total">   15.32   15.35</time>
   <energy>
    <i name="e_fr_energy">   -346.28128877 </i>
    <i name="e_wo_entrp">   -346.27020823 </i>
    <i name="e_0_energy">   -346.27759525 </i>
   </energy>
  </scstep>
  <scstep>
   <time name="dav">   15.22   15.25</time>
   <time name="total">   15.55   15.58</time>
   <energy>
    <i name="e_fr_energy">   -346.25620892 </i>
    <i name="e_wo_entrp">   -346.24690873 </i>
    <i name="e_0_energy">   -346.25310886 </i>
   </energy>
  </scstep>
  <scstep>
   <time name="dav">   14.62   14.64</time>
   <time name="total">   14.93   14.96</time>
   <energy>
    <i name="e_fr_energy">   -346.25706194 </i>
    <i name="e_wo_entrp">   -346.24666554 </i>
    <i name="e_0_energy">   -346.25359648 </i>
   </energy>
  </scstep>
  <scstep>
   <time name="dav">   14.58   14.61</time>
   <time name="total">   14.90   14.93</time>
   <energy>
    <i name="e_fr_energy">   -346.25546804 </i>
    <i name="e_wo_entrp">   -346.24550048 </i>
    <i name="e_0_energy">   -346.25214552 </i>
   </energy>
  </scstep>
  <scstep>
   <time name="dav">   13.49   13.51</time>
   <time name="total">   13.81   13.83</time>
   <energy>
    <i name="e_fr_energy">   -346.25338702 </i>
    <i name="e_wo_entrp">   -346.24349689 </i>
    <i name="e_0_energy">   -346.25009031 </i>
   </energy>
  </scstep>
  <scstep>
   <time name="dav">   13.64   13.66</time>
   <time name="total">   13.95   13.98</time>
   <energy>
    <i name="e_fr_energy">   -346.25284530 </i>
    <i name="e_wo_entrp">   -346.24309858 </i>
    <i name="e_0_energy">   -346.24959639 </i>
   </energy>
  </scstep>
  <scstep>
   <time name="dav">   12.94   12.96</time>
   <time name="total">   13.27   13.29</time>
   <energy>
    <i name="e_fr_energy">   -346.25277840 </i>
    <i name="e_wo_entrp">   -346.24300306 </i>
    <i name="e_0_energy">   -346.24951995 </i>
   </energy>
  </scstep>
  <scstep>
   <time name="dav">   10.32   10.34</time>
   <time name="total">   10.35   10.37</time>
   <energy>
    <i name="alphaZ">   1381.42178624 </i>
    <i name="ewald"> -12092.38474530 </i>
    <i name="hartreedc">  -2846.07373235 </i>
    <i name="XCdc">   -896.58053319 </i>
    <i name="pawpsdc">  21952.70263007 </i>
    <i name="pawaedc"> -20393.04204481 </i>
    <i name="eentropy">     -0.00969344 </i>
    <i name="bandstr">   -663.13906135 </i>
    <i name="atom">  13210.85262565 </i>
    <i name="e_fr_energy">   -346.25276847 </i>
    <i name="e_wo_entrp">   -346.24307503 </i>
    <i name="e_0_energy">   -346.24953732 </i>
   </energy>
  </scstep>
  <structure>
   <crystal>
    <varray name="basis" >
     <v>       0.00000000       0.00000000       6.38000000 </v>
     <v>       7.97500000       1.59500000       1.59500000 </v>
     <v>       0.00000000       9.57000000       3.19000000 </v>
    </varray>
    <i name="volume">    486.92638500 </i>
    <varray name="rec_basis" >
     <v>      -0.02089864      -0.05224660       0.15673981 </v>
     <v>       0.12539185       0.00000000       0.00000000 </v>
     <v>      -0.02089864       0.10449321       0.00000000 </v>
    </varray>
   </crystal>
   <varray name="positions" >
    <v>       0.00000000       0.00000000       0.00000000 </v>
    <v>       0.83333333       0.00000000       0.33333333 </v>
    <v>       0.10000000       0.40000000       0.60000000 </v>
    <v>       0.20000000       0.80000000       0.20000000 </v>
    <v>       0.80000000       0.20000000       0.80000000 </v>
    <v>       0.93333333       0.40000000       0.93333333 </v>
    <v>       0.50000000       0.00000000       0.00000000 </v>
    <v>       0.33333333       0.00000000       0.33333333 </v>
    <v>       0.46666667       0.20000000       0.46666667 </v>
    <v>       0.23333333       0.60000000       0.73333333 </v>
    <v>       0.73333333       0.60000000       0.73333333 </v>
    <v>       0.86666667       0.80000000       0.86666667 </v>
    <v>       0.13333333       0.20000000       0.13333333 </v>
    <v>       0.63333333       0.20000000       0.13333333 </v>
    <v>       0.66666667       0.00000000       0.66666667 </v>
    <v>       0.76666667       0.40000000       0.26666667 </v>
    <v>       0.40000000       0.60000000       0.40000000 </v>
    <v>       0.60000000       0.40000000       0.60000000 </v>
    <v>       0.16666667       0.00000000       0.66666667 </v>
    <v>       0.26666667       0.40000000       0.26666667 </v>
    <v>       0.30000000       0.20000000       0.80000000 </v>
    <v>       0.90000000       0.60000000       0.40000000 </v>
    <v>       0.53333333       0.80000000       0.53333333 </v>
    <v>       0.36666667       0.80000000       0.86666667 </v>
    <v>       0.06666667       0.60000000       0.06666667 </v>
    <v>       0.56666667       0.60000000       0.06666667 </v>
    <v>       0.96666667       0.20000000       0.46666667 </v>
    <v>       0.70000000       0.80000000       0.20000000 </v>
    <v>       0.03333333       0.80000000       0.53333333 </v>
    <v>       0.43333333       0.40000000       0.93333333 </v>
   </varray>
  </structure>
  <varray name="forces" >
   <v>      -0.68667676      -0.45650798      -0.29324283 </v>
   <v>      -0.36724178       0.66986071      -0.14173387 </v>
   <v>      -0.14819060      -0.19674110      -0.07324334 </v>
   <v>      -0.19965529      -0.72720018       0.28368261 </v>
   <v>      -0.12625607       0.39912603      -0.42016923 </v>
   <v>       1.04566315      -0.19741891      -0.01979217 </v>
   <v>      -0.30083693      -0.04601406       0.36645499 </v>
   <v>       0.17479568       0.63904762      -0.00498342 </v>
   <v>      -0.32277355       0.05033764      -0.19810155 </v>
   <v>       0.16603658       0.12853072      -0.07588341 </v>
   <v>       0.43029395       0.01419257       0.08992079 </v>
   <v>      -0.58710147       0.25744620      -0.16699669 </v>
   <v>      -0.21749268      -0.42546868       0.88714504 </v>
   <v>      -0.42602451      -0.25624375      -0.88505525 </v>
   <v>       0.18961299      -0.52774483       0.44747424 </v>
   <v>       0.14987595       0.21489836      -0.00520292 </v>
   <v>       0.75357775       0.00967474      -0.06199864 </v>
   <v>       0.11252841       0.18982091      -0.01056687 </v>
   <v>      -0.05546119      -0.32659782      -0.43077444 </v>
   <v>      -0.15858147      -0.07057617       0.04457597 </v>
   <v>      -0.17577358       0.62816999       0.38543265 </v>
   <v>       0.40479461       0.00474537       0.16356975 </v>
   <v>      -0.48567043       0.43904771      -0.18582709 </v>
   <v>      -0.54877734       0.02907976       0.18260713 </v>
   <v>       0.11695303      -0.06369928      -0.07311362 </v>
   <v>       0.18971621      -0.23140517       0.11823129 </v>
   <v>      -0.06325537      -0.23004335       0.20384924 </v>
   <v>       0.03024582      -0.31538890      -0.43646032 </v>
   <v>      -0.06092524       0.23414582       0.28468065 </v>
   <v>       1.16660012       0.16292603       0.02552127 </v>
  </varray>
  <varray name="stress" >
   <v>      -6.61729478       3.66573136      -1.29708696 </v>
   <v>       3.66573147      -7.17297335      -1.05662086 </v>
   <v>      -1.29708699      -1.05662080      -6.71028657 </v>
  </varray>
  <energy>
   <i name="e_fr_energy">   -346.25276847 </i>
   <i name="e_wo_entrp">   -346.24953732 </i>
   <i name="e_0_energy">     -0.00969344 </i>
  </energy>
  <time name="totalsc">  298.02  304.52</time>
  <eigenvalues>
   <array>
    <dimension dim="1">band</dimension>
    <dimension dim="2">kpoint</dimension>
    <dimension dim="3">spin</dimension>
    <field>eigene</field>
    <field>occ</field>
    <set>
     <set comment="spin 1">
      <set comment="kpoint 1">
       <r>  -47.0906    1.0000 </r>
       <r>  -47.0794    1.0000 </r>
       <r>  -47.0428    1.0000 </r>
       <r>  -46.9847    1.0000 </r>
       <r>  -46.9466    1.0000 </r>
       <r>  -46.8787    1.0000 </r>
       <r>  -23.6567    1.0000 </r>
       <r>  -23.5861    1.0000 </r>
       <r>  -23.5188    1.0000 </r>
       <r>  -23.4080    1.0000 </r>
       <r>  -23.2944    1.0000 </r>
       <r>  -23.2745    1.0000 </r>
       <r>  -23.2604    1.0000 </r>
       <r>  -23.2275    1.0000 </r>
       <r>  -23.2131    1.0000 </r>
       <r>  -23.1804    1.0000 </r>
       <r>  -23.1706    1.0000 </r>
       <r>  -23.1534    1.0000 </r>
       <r>  -23.0783    1.0000 </r>
       <r>  -23.0500    1.0000 </r>
       <r>  -22.9464    1.0000 </r>
       <r>  -22.9097    1.0000 </r>
       <r>  -22.8433    1.0000 </r>
       <r>  -22.6974    1.0000 </r>
       <r>   -0.4495    1.0000 </r>
       <r>    1.4674    1.0000 </r>
       <r>    1.9694    1.0000 </r>
       <r>    2.1145    1.0000 </r>
       <r>    2.3138    1.0000 </r>
       <r>    2.4064    1.0000 </r>
       <r>    2.5025    1.0000 </r>
       <r>    2.6050    1.0000 </r>
       <r>    2.6906    1.0000 </r>
       <r>    2.8617    1.0000 </r>
       <r>    2.9172    1.0000 </r>
       <r>    3.0305    1.0000 </r>
       <r>    3.0594    1.0000 </r>
       <r>    3.0892    1.0000 </r>
       <r>    3.1841    1.0000 </r>
       <r>    3.2861    1.0000 </r>
       <r>    3.3251    1.0000 </r>
       <r>    3.3770    1.0000 </r>
       <r>    3.4143    1.0000 </r>
       <r>    3.4523    1.0000 </r>
       <r>    3.4776    1.0000 </r>
       <r>    3.5197    1.0000 </r>
       <r>    3.6108    1.0000 </r>
       <r>    3.6975    1.0000 </r>
       <r>    3.7307    1.0000 </r>
       <r>    3.8215    1.0000 </r>
       <r>    3.8375    1.0000 </r>
       <r>    3.9004    1.0000 </r>
       <r>    3.9765    1.0000 </r>
       <r>    4.1817    1.0000 </r>
       <r>    4.3638    1.0000 </r>
       <r>    4.4567    1.0000 </r>
       <r>    4.6076    1.0000 </r>
       <r>    4.6291    1.0000 </r>
       <r>    4.7717    1.0000 </r>
       <r>    4.8338    1.0000 </r>
       <r>    4.8683    1.0000 </r>
       <r>    4.9025    1.0000 </r>
       <r>    4.9526    1.0000 </r>
       <r>    5.0024    1.0000 </r>
       <r>    5.0550    1.0000 </r>
       <r>    5.0752    1.0000 </r>
       <r>    5.1111    1.0000 </r>
       <r>    5.1453    1.0000 </r>
       <r>    5.1983    1.0000 </r>
       <r>    5.2346    1.0000 </r>
       <r>    5.2883    1.0000 </r>
       <r>    5.3087    1.0000 </r>
       <r>    5.3975    1.0000 </r>
       <r>    5.4671    1.0000 </r>
       <r>    5.5657    1.0000 </r>
       <r>    5.5969    1.0000 </r>
       <r>    5.7159    1.0000 </r>
       <r>    5.8030    1.0000 </r>
       <r>    5.9063    1.0000 </r>
       <r>    5.9356    1.0000 </r>
       <r>    5.9723    1.0000 </r>
       <r>    6.2075    1.0000 </r>
       <r>    6.3324    1.0002 </r>
       <r>    6.3684    1.0005 </r>
       <r>    6.4682    1.0045 </r>
       <r>    6.5230    1.0111 </r>
       <r>    6.5551    1.0171 </r>
       <r>    6.6196    1.0314 </r>
       <r>    6.6381    1.0343 </r>
       <r>    6.6787    1.0333 </r>
       <r>    6.7533    0.9739 </r>
       <r>    6.7761    0.9325 </r>
       <r>    6.8195    0.8177 </r>
       <r>    6.8354    0.7647 </r>
       <r>    6.8729    0.6209 </r>
       <r>    6.9068    0.4788 </r>
       <r>    6.9240    0.4068 </r>
       <r>    6.9534    0.2894 </r>
       <r>    7.0217    0.0801 </r>
       <r>    7.1559   -0.0352 </r>
       <r>    7.2005   -0.0279 </r>
       <r>    7.2398   -0.0190 </r>
       <r>    7.2588   -0.0150 </r>
       <r>    7.2713   -0.0127 </r>
       <r>    7.3409   -0.0040 </r>
       <r>    7.3987   -0.0012 </r>
       <r>    7.4150   -0.0009 </r>
       <r>    7.4853   -0.0001 </r>
       <r>    7.6022   -0.0000 </r>
       <r>    7.6845   -0.0000 </r>
       <r>    7.7918   -0.0000 </r>
       <r>    7.8375   -0.0000 </r>
       <r>    7.8839   -0.0000 </r>
       <r>    7.9328   -0.0000 </r>
       <r>    7.9649   -0.0000 </r>
       <r>    8.0990   -0.0000 </r>
       <r>    8.2571   -0.0000 </r>
       <r>    8.3799   -0.0000 </r>
       <r>    8.4318   -0.0000 </r>
       <r>    8.5660   -0.0000 </r>
       <r>    8.5766   -0.0000 </r>
       <r>    8.5816   -0.0000 </r>
       <r>    8.6027   -0.0000 </r>
       <r>    8.6551   -0.0000 </r>
       <r>    8.6900   -0.0000 </r>
       <r>    8.7929   -0.0000 </r>
       <r>    8.8008   -0.0000 </r>
       <r>    8.8475   -0.0000 </r>
      </set>
      <set comment="kpoint 2">
       <r>  -47.0902    1.0000 </r>
       <r>  -47.0795    1.0000 </r>
       <r>  -47.0427    1.0000 </r>
       <r>  -46.9847    1.0000 </r>
       <r>  -46.9466    1.0000 </r>
       <r>  -46.8787    1.0000 </r>
       <r>  -23.6579    1.0000 </r>
       <r>  -23.5861    1.0000 </r>
       <r>  -23.5201    1.0000 </r>
       <r>  -23.4081    1.0000 </r>
       <r>  -23.2946    1.0000 </r>
       <r>  -23.2752    1.0000 </r>
       <r>  -23.2613    1.0000 </r>
       <r>  -23.2283    1.0000 </r>
       <r>  -23.2131    1.0000 </r>
       <r>  -23.1801    1.0000 </r>
       <r>  -23.1704    1.0000 </r>
       <r>  -23.1532    1.0000 </r>
       <r>  -23.0785    1.0000 </r>
       <r>  -23.0498    1.0000 </r>
       <r>  -22.9452    1.0000 </r>
       <r>  -22.9103    1.0000 </r>
       <r>  -22.8432    1.0000 </r>
       <r>  -22.6973    1.0000 </r>
       <r>   -0.2093    1.0000 </r>
       <r>    1.4529    1.0000 </r>
       <r>    2.0684    1.0000 </r>
       <r>    2.2004    1.0000 </r>
       <r>    2.3526    1.0000 </r>
       <r>    2.4603    1.0000 </r>
       <r>    2.5763    1.0000 </r>
       <r>    2.7443    1.0000 </r>
       <r>    2.7865    1.0000 </r>
       <r>    2.8603    1.0000 </r>
       <r>    3.0058    1.0000 </r>
       <r>    3.0404    1.0000 </r>
       <r>    3.1018    1.0000 </r>
       <r>    3.1881    1.0000 </r>
       <r>    3.2303    1.0000 </r>
       <r>    3.3139    1.0000 </r>
       <r>    3.3579    1.0000 </r>
       <r>    3.4155    1.0000 </r>
       <r>    3.4853    1.0000 </r>
       <r>    3.5177    1.0000 </r>
       <r>    3.5921    1.0000 </r>
       <r>    3.6183    1.0000 </r>
       <r>    3.6624    1.0000 </r>
       <r>    3.8047    1.0000 </r>
       <r>    3.9027    1.0000 </r>
       <r>    3.9519    1.0000 </r>
       <r>    4.0263    1.0000 </r>
       <r>    4.1200    1.0000 </r>
       <r>    4.1521    1.0000 </r>
       <r>    4.1930    1.0000 </r>
       <r>    4.4079    1.0000 </r>
       <r>    4.5902    1.0000 </r>
       <r>    4.6353    1.0000 </r>
       <r>    4.6890    1.0000 </r>
       <r>    4.7292    1.0000 </r>
       <r>    4.7685    1.0000 </r>
       <r>    4.8273    1.0000 </r>
       <r>    4.8670    1.0000 </r>
       <r>    4.9289    1.0000 </r>
       <r>    5.0031    1.0000 </r>
       <r>    5.0333    1.0000 </r>
       <r>    5.0875    1.0000 </r>
       <r>    5.1238    1.0000 </r>
       <r>    5.1631    1.0000 </r>
       <r>    5.2158    1.0000 </r>
       <r>    5.2526    1.0000 </r>
       <r>    5.2759    1.0000 </r>
       <r>    5.3377    1.0000 </r>
       <r>    5.3705    1.0000 </r>
       <r>    5.4230    1.0000 </r>
       <r>    5.5127    1.0000 </r>
       <r>    5.5879    1.0000 </r>
       <r>    5.6420    1.0000 </r>
       <r>    5.7355    1.0000 </r>
       <r>    5.7926    1.0000 </r>
       <r>    5.8610    1.0000 </r>
       <r>    5.9812    1.0000 </r>
       <r>    6.0248    1.0000 </r>
       <r>    6.1061    1.0000 </r>
       <r>    6.1676    1.0000 </r>
       <r>    6.2070    1.0000 </r>
       <r>    6.2484    1.0000 </r>
       <r>    6.2792    1.0000 </r>
       <r>    6.3286    1.0002 </r>
       <r>    6.3549    1.0004 </r>
       <r>    6.4133    1.0015 </r>
       <r>    6.4483    1.0031 </r>
       <r>    6.5063    1.0086 </r>
       <r>    6.5581    1.0178 </r>
       <r>    6.5922    1.0255 </r>
       <r>    6.6204    1.0315 </r>
       <r>    6.6957    1.0280 </r>
       <r>    6.7296    1.0041 </r>
       <r>    6.7566    0.9686 </r>
       <r>    6.8404    0.7468 </r>
       <r>    6.8720    0.6245 </r>
       <r>    6.9178    0.4327 </r>
       <r>    7.0318    0.0588 </r>
       <r>    7.0950   -0.0212 </r>
       <r>    7.1296   -0.0342 </r>
       <r>    7.1923   -0.0297 </r>
       <r>    7.2126   -0.0252 </r>
       <r>    7.3048   -0.0076 </r>
       <r>    7.3665   -0.0025 </r>
       <r>    7.4011   -0.0012 </r>
       <r>    7.4746   -0.0002 </r>
       <r>    7.6229   -0.0000 </r>
       <r>    7.6463   -0.0000 </r>
       <r>    7.9451   -0.0000 </r>
       <r>    8.0070   -0.0000 </r>
       <r>    8.0659   -0.0000 </r>
       <r>    8.1276   -0.0000 </r>
       <r>    8.2655   -0.0000 </r>
       <r>    8.4976   -0.0000 </r>
       <r>    8.7183   -0.0000 </r>
       <r>    8.7868   -0.0000 </r>
       <r>    8.8083   -0.0000 </r>
       <r>    8.8384   -0.0000 </r>
       <r>    8.9261   -0.0000 </r>
       <r>    8.9953   -0.0000 </r>
       <r>    9.0298   -0.0000 </r>
       <r>    9.1174   -0.0000 </r>
       <r>    9.1501   -0.0000 </r>
       <r>    9.2594   -0.0000 </r>
      </set>
      <set comment="kpoint 3">
       <r>  -47.0897    1.0000 </r>
       <r>  -47.0798    1.0000 </r>
       <r>  -47.0427    1.0000 </r>
       <r>  -46.9847    1.0000 </r>
       <r>  -46.9467    1.0000 </r>
       <r>  -46.8787    1.0000 </r>
       <r>  -23.6598    1.0000 </r>
       <r>  -23.5863    1.0000 </r>
       <r>  -23.5220    1.0000 </r>
       <r>  -23.4081    1.0000 </r>
       <r>  -23.2951    1.0000 </r>
       <r>  -23.2765    1.0000 </r>
       <r>  -23.2628    1.0000 </r>
       <r>  -23.2292    1.0000 </r>
       <r>  -23.2130    1.0000 </r>
       <r>  -23.1798    1.0000 </r>
       <r>  -23.1701    1.0000 </r>
       <r>  -23.1531    1.0000 </r>
       <r>  -23.0787    1.0000 </r>
       <r>  -23.0495    1.0000 </r>
       <r>  -22.9434    1.0000 </r>
       <r>  -22.9113    1.0000 </r>
       <r>  -22.8430    1.0000 </r>
       <r>  -22.6971    1.0000 </r>
       <r>    0.4504    1.0000 </r>
       <r>    1.4426    1.0000 </r>
       <r>    1.5647    1.0000 </r>
       <r>    2.0990    1.0000 </r>
       <r>    2.3703    1.0000 </r>
       <r>    2.6526    1.0000 </r>
       <r>    2.7163    1.0000 </r>
       <r>    2.8836    1.0000 </r>
       <r>    2.9035    1.0000 </r>
       <r>    3.0168    1.0000 </r>
       <r>    3.1327    1.0000 </r>
       <r>    3.3101    1.0000 </r>
       <r>    3.4236    1.0000 </r>
       <r>    3.4617    1.0000 </r>
       <r>    3.5104    1.0000 </r>
       <r>    3.5628    1.0000 </r>
       <r>    3.6432    1.0000 </r>
       <r>    3.6758    1.0000 </r>
       <r>    3.7499    1.0000 </r>
       <r>    3.7997    1.0000 </r>
       <r>    3.8371    1.0000 </r>
       <r>    3.9126    1.0000 </r>
       <r>    3.9653    1.0000 </r>
       <r>    3.9911    1.0000 </r>
       <r>    4.0305    1.0000 </r>
       <r>    4.0700    1.0000 </r>
       <r>    4.1752    1.0000 </r>
       <r>    4.2015    1.0000 </r>
       <r>    4.3067    1.0000 </r>
       <r>    4.3511    1.0000 </r>
       <r>    4.3948    1.0000 </r>
       <r>    4.4799    1.0000 </r>
       <r>    4.6192    1.0000 </r>
       <r>    4.6348    1.0000 </r>
       <r>    4.7084    1.0000 </r>
       <r>    4.7693    1.0000 </r>
       <r>    4.8617    1.0000 </r>
       <r>    4.8725    1.0000 </r>
       <r>    4.8975    1.0000 </r>
       <r>    4.9574    1.0000 </r>
       <r>    4.9894    1.0000 </r>
       <r>    5.0436    1.0000 </r>
       <r>    5.0899    1.0000 </r>
       <r>    5.1114    1.0000 </r>
       <r>    5.1416    1.0000 </r>
       <r>    5.1769    1.0000 </r>
       <r>    5.2009    1.0000 </r>
       <r>    5.2514    1.0000 </r>
       <r>    5.3241    1.0000 </r>
       <r>    5.3423    1.0000 </r>
       <r>    5.3901    1.0000 </r>
       <r>    5.4706    1.0000 </r>
       <r>    5.5023    1.0000 </r>
       <r>    5.5313    1.0000 </r>
       <r>    5.5554    1.0000 </r>
       <r>    5.6178    1.0000 </r>
       <r>    5.6502    1.0000 </r>
       <r>    5.7412    1.0000 </r>
       <r>    5.8433    1.0000 </r>
       <r>    5.8968    1.0000 </r>
       <r>    5.9531    1.0000 </r>
       <r>    6.0333    1.0000 </r>
       <r>    6.0652    1.0000 </r>
       <r>    6.1156    1.0000 </r>
       <r>    6.1501    1.0000 </r>
       <r>    6.1777    1.0000 </r>
       <r>    6.2242    1.0000 </r>
       <r>    6.2478    1.0000 </r>
       <r>    6.2769    1.0000 </r>
       <r>    6.3340    1.0002 </r>
       <r>    6.3502    1.0003 </r>
       <r>    6.3877    1.0008 </r>
       <r>    6.4536    1.0034 </r>
       <r>    6.4911    1.0067 </r>
       <r>    6.5198    1.0106 </r>
       <r>    6.5618    1.0185 </r>
       <r>    6.6828    1.0324 </r>
       <r>    6.7129    1.0184 </r>
       <r>    6.7492    0.9800 </r>
       <r>    6.8111    0.8436 </r>
       <r>    6.8680    0.6408 </r>
       <r>    6.8842    0.5744 </r>
       <r>    6.9232    0.4100 </r>
       <r>    6.9497    0.3038 </r>
       <r>    7.0398    0.0437 </r>
       <r>    7.1804   -0.0320 </r>
       <r>    7.2257   -0.0222 </r>
       <r>    7.3389   -0.0042 </r>
       <r>    7.7084   -0.0000 </r>
       <r>    7.8833   -0.0000 </r>
       <r>    8.2277   -0.0000 </r>
       <r>    8.4112   -0.0000 </r>
       <r>    8.6488   -0.0000 </r>
       <r>    8.7446   -0.0000 </r>
       <r>    8.7620   -0.0000 </r>
       <r>    8.8366   -0.0000 </r>
       <r>    8.9568   -0.0000 </r>
       <r>    9.0200   -0.0000 </r>
       <r>    9.0872   -0.0000 </r>
       <r>    9.1273   -0.0000 </r>
       <r>    9.2194   -0.0000 </r>
       <r>    9.2888   -0.0000 </r>
       <r>    9.3623   -0.0000 </r>
       <r>    9.4443   -0.0000 </r>
      </set>
      <set comment="kpoint 4">
       <r>  -47.0903    1.0000 </r>
       <r>  -47.0797    1.0000 </r>
       <r>  -47.0428    1.0000 </r>
       <r>  -46.9847    1.0000 </r>
       <r>  -46.9465    1.0000 </r>
       <r>  -46.8787    1.0000 </r>
       <r>  -23.6568    1.0000 </r>
       <r>  -23.5855    1.0000 </r>
       <r>  -23.5182    1.0000 </r>
       <r>  -23.4096    1.0000 </r>
       <r>  -23.2943    1.0000 </r>
       <r>  -23.2744    1.0000 </r>
       <r>  -23.2606    1.0000 </r>
       <r>  -23.2276    1.0000 </r>
       <r>  -23.2130    1.0000 </r>
       <r>  -23.1803    1.0000 </r>
       <r>  -23.1707    1.0000 </r>
       <r>  -23.1531    1.0000 </r>
       <r>  -23.0784    1.0000 </r>
       <r>  -23.0499    1.0000 </r>
       <r>  -22.9455    1.0000 </r>
       <r>  -22.9101    1.0000 </r>
       <r>  -22.8433    1.0000 </r>
       <r>  -22.6977    1.0000 </r>
       <r>   -0.3152    1.0000 </r>
       <r>    1.3893    1.0000 </r>
       <r>    1.6808    1.0000 </r>
       <r>    2.0180    1.0000 </r>
       <r>    2.2167    1.0000 </r>
       <r>    2.4433    1.0000 </r>
       <r>    2.5092    1.0000 </r>
       <r>    2.6447    1.0000 </r>
       <r>    2.7617    1.0000 </r>
       <r>    2.8202    1.0000 </r>
       <r>    2.8654    1.0000 </r>
       <r>    2.9164    1.0000 </r>
       <r>    3.0087    1.0000 </r>
       <r>    3.1167    1.0000 </r>
       <r>    3.1967    1.0000 </r>
       <r>    3.3045    1.0000 </r>
       <r>    3.3142    1.0000 </r>
       <r>    3.4011    1.0000 </r>
       <r>    3.4370    1.0000 </r>
       <r>    3.5189    1.0000 </r>
       <r>    3.6189    1.0000 </r>
       <r>    3.6568    1.0000 </r>
       <r>    3.7300    1.0000 </r>
       <r>    3.7831    1.0000 </r>
       <r>    3.8000    1.0000 </r>
       <r>    3.8338    1.0000 </r>
       <r>    3.9335    1.0000 </r>
       <r>    3.9577    1.0000 </r>
       <r>    4.0496    1.0000 </r>
       <r>    4.0887    1.0000 </r>
       <r>    4.2614    1.0000 </r>
       <r>    4.4255    1.0000 </r>
       <r>    4.6191    1.0000 </r>
       <r>    4.6624    1.0000 </r>
       <r>    4.7577    1.0000 </r>
       <r>    4.7857    1.0000 </r>
       <r>    4.8141    1.0000 </r>
       <r>    4.8618    1.0000 </r>
       <r>    4.9257    1.0000 </r>
       <r>    4.9963    1.0000 </r>
       <r>    5.0190    1.0000 </r>
       <r>    5.1103    1.0000 </r>
       <r>    5.1378    1.0000 </r>
       <r>    5.1672    1.0000 </r>
       <r>    5.2133    1.0000 </r>
       <r>    5.2374    1.0000 </r>
       <r>    5.3108    1.0000 </r>
       <r>    5.3572    1.0000 </r>
       <r>    5.4220    1.0000 </r>
       <r>    5.4635    1.0000 </r>
       <r>    5.4966    1.0000 </r>
       <r>    5.6205    1.0000 </r>
       <r>    5.6995    1.0000 </r>
       <r>    5.7750    1.0000 </r>
       <r>    5.8544    1.0000 </r>
       <r>    5.8799    1.0000 </r>
       <r>    6.0509    1.0000 </r>
       <r>    6.1950    1.0000 </r>
       <r>    6.2744    1.0000 </r>
       <r>    6.3144    1.0001 </r>
       <r>    6.3232    1.0002 </r>
       <r>    6.3614    1.0004 </r>
       <r>    6.4244    1.0019 </r>
       <r>    6.4619    1.0040 </r>
       <r>    6.5254    1.0115 </r>
       <r>    6.5993    1.0271 </r>
       <r>    6.6392    1.0344 </r>
       <r>    6.7070    1.0222 </r>
       <r>    6.8848    0.5715 </r>
       <r>    6.9273    0.3929 </r>
       <r>    6.9444    0.3244 </r>
       <r>    6.9678    0.2369 </r>
       <r>    7.0430    0.0381 </r>
       <r>    7.0697    0.0005 </r>
       <r>    7.1053   -0.0268 </r>
       <r>    7.1727   -0.0333 </r>
       <r>    7.2216   -0.0231 </r>
       <r>    7.2579   -0.0152 </r>
       <r>    7.2919   -0.0093 </r>
       <r>    7.3206   -0.0058 </r>
       <r>    7.3762   -0.0020 </r>
       <r>    7.4085   -0.0010 </r>
       <r>    7.4890   -0.0001 </r>
       <r>    7.5193   -0.0001 </r>
       <r>    7.5528   -0.0000 </r>
       <r>    7.6482   -0.0000 </r>
       <r>    7.6714   -0.0000 </r>
       <r>    7.7651   -0.0000 </r>
       <r>    7.8123   -0.0000 </r>
       <r>    8.1199   -0.0000 </r>
       <r>    8.2423   -0.0000 </r>
       <r>    8.3183   -0.0000 </r>
       <r>    8.3542   -0.0000 </r>
       <r>    8.4189   -0.0000 </r>
       <r>    8.4848   -0.0000 </r>
       <r>    8.5249   -0.0000 </r>
       <r>    8.5840   -0.0000 </r>
       <r>    8.6169   -0.0000 </r>
       <r>    8.7022   -0.0000 </r>
       <r>    8.7166   -0.0000 </r>
       <r>    8.7792   -0.0000 </r>
       <r>    8.9071   -0.0000 </r>
       <r>    8.9744   -0.0000 </r>
       <r>    9.1177   -0.0000 </r>
      </set>
      <set comment="kpoint 5">
       <r>  -47.0902    1.0000 </r>
       <r>  -47.0796    1.0000 </r>
       <r>  -47.0427    1.0000 </r>
       <r>  -46.9847    1.0000 </r>
       <r>  -46.9466    1.0000 </r>
       <r>  -46.8787    1.0000 </r>
       <r>  -23.6572    1.0000 </r>
       <r>  -23.5860    1.0000 </r>
       <r>  -23.5200    1.0000 </r>
       <r>  -23.4096    1.0000 </r>
       <r>  -23.2946    1.0000 </r>
       <r>  -23.2750    1.0000 </r>
       <r>  -23.2615    1.0000 </r>
       <r>  -23.2280    1.0000 </r>
       <r>  -23.2132    1.0000 </r>
       <r>  -23.1801    1.0000 </r>
       <r>  -23.1704    1.0000 </r>
       <r>  -23.1530    1.0000 </r>
       <r>  -23.0785    1.0000 </r>
       <r>  -23.0499    1.0000 </r>
       <r>  -22.9447    1.0000 </r>
       <r>  -22.9102    1.0000 </r>
       <r>  -22.8432    1.0000 </r>
       <r>  -22.6975    1.0000 </r>
       <r>   -0.1299    1.0000 </r>
       <r>    1.3840    1.0000 </r>
       <r>    1.8227    1.0000 </r>
       <r>    2.2675    1.0000 </r>
       <r>    2.4794    1.0000 </r>
       <r>    2.5491    1.0000 </r>
       <r>    2.6115    1.0000 </r>
       <r>    2.7080    1.0000 </r>
       <r>    2.8293    1.0000 </r>
       <r>    2.8675    1.0000 </r>
       <r>    2.9667    1.0000 </r>
       <r>    3.0392    1.0000 </r>
       <r>    3.0768    1.0000 </r>
       <r>    3.1402    1.0000 </r>
       <r>    3.2264    1.0000 </r>
       <r>    3.2511    1.0000 </r>
       <r>    3.3475    1.0000 </r>
       <r>    3.3975    1.0000 </r>
       <r>    3.4692    1.0000 </r>
       <r>    3.5474    1.0000 </r>
       <r>    3.6207    1.0000 </r>
       <r>    3.6796    1.0000 </r>
       <r>    3.7432    1.0000 </r>
       <r>    3.7607    1.0000 </r>
       <r>    3.8639    1.0000 </r>
       <r>    3.9218    1.0000 </r>
       <r>    4.0195    1.0000 </r>
       <r>    4.0891    1.0000 </r>
       <r>    4.1517    1.0000 </r>
       <r>    4.2247    1.0000 </r>
       <r>    4.4476    1.0000 </r>
       <r>    4.4700    1.0000 </r>
       <r>    4.6001    1.0000 </r>
       <r>    4.6835    1.0000 </r>
       <r>    4.7298    1.0000 </r>
       <r>    4.8195    1.0000 </r>
       <r>    4.8551    1.0000 </r>
       <r>    4.8929    1.0000 </r>
       <r>    4.9137    1.0000 </r>
       <r>    4.9687    1.0000 </r>
       <r>    5.0056    1.0000 </r>
       <r>    5.0722    1.0000 </r>
       <r>    5.1223    1.0000 </r>
       <r>    5.1396    1.0000 </r>
       <r>    5.1663    1.0000 </r>
       <r>    5.2466    1.0000 </r>
       <r>    5.3329    1.0000 </r>
       <r>    5.3517    1.0000 </r>
       <r>    5.3776    1.0000 </r>
       <r>    5.4827    1.0000 </r>
       <r>    5.5226    1.0000 </r>
       <r>    5.5999    1.0000 </r>
       <r>    5.6615    1.0000 </r>
       <r>    5.7731    1.0000 </r>
       <r>    5.8112    1.0000 </r>
       <r>    5.8435    1.0000 </r>
       <r>    5.9002    1.0000 </r>
       <r>    5.9499    1.0000 </r>
       <r>    6.0242    1.0000 </r>
       <r>    6.1055    1.0000 </r>
       <r>    6.1805    1.0000 </r>
       <r>    6.2215    1.0000 </r>
       <r>    6.2629    1.0000 </r>
       <r>    6.3243    1.0002 </r>
       <r>    6.4086    1.0013 </r>
       <r>    6.4386    1.0025 </r>
       <r>    6.5019    1.0080 </r>
       <r>    6.5355    1.0133 </r>
       <r>    6.5553    1.0171 </r>
       <r>    6.6161    1.0307 </r>
       <r>    6.6673    1.0350 </r>
       <r>    6.7261    1.0075 </r>
       <r>    6.7600    0.9630 </r>
       <r>    6.7991    0.8775 </r>
       <r>    6.8251    0.7997 </r>
       <r>    6.8701    0.6323 </r>
       <r>    6.9133    0.4513 </r>
       <r>    6.9747    0.2132 </r>
       <r>    7.0566    0.0170 </r>
       <r>    7.0873   -0.0159 </r>
       <r>    7.1627   -0.0346 </r>
       <r>    7.2150   -0.0246 </r>
       <r>    7.3124   -0.0067 </r>
       <r>    7.4164   -0.0008 </r>
       <r>    7.5072   -0.0001 </r>
       <r>    7.5844   -0.0000 </r>
       <r>    7.6366   -0.0000 </r>
       <r>    7.7829   -0.0000 </r>
       <r>    7.9479   -0.0000 </r>
       <r>    7.9886   -0.0000 </r>
       <r>    8.1871   -0.0000 </r>
       <r>    8.3145   -0.0000 </r>
       <r>    8.3772   -0.0000 </r>
       <r>    8.4941   -0.0000 </r>
       <r>    8.5586   -0.0000 </r>
       <r>    8.6094   -0.0000 </r>
       <r>    8.6283   -0.0000 </r>
       <r>    8.6693   -0.0000 </r>
       <r>    8.8210   -0.0000 </r>
       <r>    8.8784   -0.0000 </r>
       <r>    9.0232   -0.0000 </r>
       <r>    9.1036   -0.0000 </r>
       <r>    9.2610   -0.0000 </r>
       <r>    9.2828   -0.0000 </r>
      </set>
      <set comment="kpoint 6">
       <r>  -47.0897    1.0000 </r>
       <r>  -47.0799    1.0000 </r>
       <r>  -47.0427    1.0000 </r>
       <r>  -46.9847    1.0000 </r>
       <r>  -46.9467    1.0000 </r>
       <r>  -46.8787    1.0000 </r>
       <r>  -23.6588    1.0000 </r>
       <r>  -23.5862    1.0000 </r>
       <r>  -23.5221    1.0000 </r>
       <r>  -23.4097    1.0000 </r>
       <r>  -23.2951    1.0000 </r>
       <r>  -23.2762    1.0000 </r>
       <r>  -23.2629    1.0000 </r>
       <r>  -23.2291    1.0000 </r>
       <r>  -23.2131    1.0000 </r>
       <r>  -23.1798    1.0000 </r>
       <r>  -23.1701    1.0000 </r>
       <r>  -23.1528    1.0000 </r>
       <r>  -23.0787    1.0000 </r>
       <r>  -23.0497    1.0000 </r>
       <r>  -22.9430    1.0000 </r>
       <r>  -22.9110    1.0000 </r>
       <r>  -22.8431    1.0000 </r>
       <r>  -22.6973    1.0000 </r>
       <r>    0.4752    1.0000 </r>
       <r>    1.4367    1.0000 </r>
       <r>    1.6370    1.0000 </r>
       <r>    2.2285    1.0000 </r>
       <r>    2.3753    1.0000 </r>
       <r>    2.5061    1.0000 </r>
       <r>    2.7769    1.0000 </r>
       <r>    2.8820    1.0000 </r>
       <r>    2.9699    1.0000 </r>
       <r>    3.0462    1.0000 </r>
       <r>    3.1467    1.0000 </r>
       <r>    3.3362    1.0000 </r>
       <r>    3.3809    1.0000 </r>
       <r>    3.4305    1.0000 </r>
       <r>    3.4938    1.0000 </r>
       <r>    3.5402    1.0000 </r>
       <r>    3.5776    1.0000 </r>
       <r>    3.6220    1.0000 </r>
       <r>    3.6474    1.0000 </r>
       <r>    3.6965    1.0000 </r>
       <r>    3.7956    1.0000 </r>
       <r>    3.8277    1.0000 </r>
       <r>    3.8804    1.0000 </r>
       <r>    3.9392    1.0000 </r>
       <r>    4.0359    1.0000 </r>
       <r>    4.0681    1.0000 </r>
       <r>    4.1504    1.0000 </r>
       <r>    4.1812    1.0000 </r>
       <r>    4.2102    1.0000 </r>
       <r>    4.2849    1.0000 </r>
       <r>    4.3567    1.0000 </r>
       <r>    4.4401    1.0000 </r>
       <r>    4.5700    1.0000 </r>
       <r>    4.6803    1.0000 </r>
       <r>    4.7445    1.0000 </r>
       <r>    4.8133    1.0000 </r>
       <r>    4.8528    1.0000 </r>
       <r>    4.9051    1.0000 </r>
       <r>    4.9569    1.0000 </r>
       <r>    4.9990    1.0000 </r>
       <r>    5.0491    1.0000 </r>
       <r>    5.0856    1.0000 </r>
       <r>    5.1426    1.0000 </r>
       <r>    5.1618    1.0000 </r>
       <r>    5.2213    1.0000 </r>
       <r>    5.2294    1.0000 </r>
       <r>    5.2884    1.0000 </r>
       <r>    5.3421    1.0000 </r>
       <r>    5.3645    1.0000 </r>
       <r>    5.4497    1.0000 </r>
       <r>    5.4742    1.0000 </r>
       <r>    5.5258    1.0000 </r>
       <r>    5.5466    1.0000 </r>
       <r>    5.5809    1.0000 </r>
       <r>    5.6451    1.0000 </r>
       <r>    5.7128    1.0000 </r>
       <r>    5.7331    1.0000 </r>
       <r>    5.7685    1.0000 </r>
       <r>    5.8336    1.0000 </r>
       <r>    5.8618    1.0000 </r>
       <r>    5.8822    1.0000 </r>
       <r>    5.9288    1.0000 </r>
       <r>    5.9679    1.0000 </r>
       <r>    6.0430    1.0000 </r>
       <r>    6.0857    1.0000 </r>
       <r>    6.1196    1.0000 </r>
       <r>    6.1643    1.0000 </r>
       <r>    6.1994    1.0000 </r>
       <r>    6.2380    1.0000 </r>
       <r>    6.2748    1.0000 </r>
       <r>    6.3026    1.0001 </r>
       <r>    6.3431    1.0003 </r>
       <r>    6.4163    1.0016 </r>
       <r>    6.4397    1.0026 </r>
       <r>    6.4767    1.0052 </r>
       <r>    6.5072    1.0087 </r>
       <r>    6.5685    1.0200 </r>
       <r>    6.6186    1.0312 </r>
       <r>    6.6648    1.0352 </r>
       <r>    6.7245    1.0090 </r>
       <r>    6.8082    0.8521 </r>
       <r>    6.8669    0.6454 </r>
       <r>    6.9645    0.2486 </r>
       <r>    6.9811    0.1921 </r>
       <r>    7.0586    0.0142 </r>
       <r>    7.2740   -0.0122 </r>
       <r>    7.3781   -0.0019 </r>
       <r>    7.5530   -0.0000 </r>
       <r>    7.8546   -0.0000 </r>
       <r>    8.1263   -0.0000 </r>
       <r>    8.3673   -0.0000 </r>
       <r>    8.4958   -0.0000 </r>
       <r>    8.6197   -0.0000 </r>
       <r>    8.6842   -0.0000 </r>
       <r>    8.7197   -0.0000 </r>
       <r>    8.8792   -0.0000 </r>
       <r>    8.9417   -0.0000 </r>
       <r>    8.9622   -0.0000 </r>
       <r>    9.0424   -0.0000 </r>
       <r>    9.0962   -0.0000 </r>
       <r>    9.1616   -0.0000 </r>
       <r>    9.2106   -0.0000 </r>
       <r>    9.2769   -0.0000 </r>
       <r>    9.3698   -0.0000 </r>
      </set>
      <set comment="kpoint 7">
       <r>  -47.0895    1.0000 </r>
       <r>  -47.0800    1.0000 </r>
       <r>  -47.0427    1.0000 </r>
       <r>  -46.9847    1.0000 </r>
       <r>  -46.9467    1.0000 </r>
       <r>  -46.8787    1.0000 </r>
       <r>  -23.6595    1.0000 </r>
       <r>  -23.5859    1.0000 </r>
       <r>  -23.5215    1.0000 </r>
       <r>  -23.4098    1.0000 </r>
       <r>  -23.2951    1.0000 </r>
       <r>  -23.2763    1.0000 </r>
       <r>  -23.2629    1.0000 </r>
       <r>  -23.2292    1.0000 </r>
       <r>  -23.2129    1.0000 </r>
       <r>  -23.1797    1.0000 </r>
       <r>  -23.1702    1.0000 </r>
       <r>  -23.1529    1.0000 </r>
       <r>  -23.0788    1.0000 </r>
       <r>  -23.0495    1.0000 </r>
       <r>  -22.9428    1.0000 </r>
       <r>  -22.9114    1.0000 </r>
       <r>  -22.8431    1.0000 </r>
       <r>  -22.6974    1.0000 </r>
       <r>    0.6412    1.0000 </r>
       <r>    1.3947    1.0000 </r>
       <r>    1.5465    1.0000 </r>
       <r>    2.0189    1.0000 </r>
       <r>    2.1822    1.0000 </r>
       <r>    2.5962    1.0000 </r>
       <r>    2.6793    1.0000 </r>
       <r>    2.8286    1.0000 </r>
       <r>    2.9910    1.0000 </r>
       <r>    3.0508    1.0000 </r>
       <r>    3.1925    1.0000 </r>
       <r>    3.2393    1.0000 </r>
       <r>    3.3305    1.0000 </r>
       <r>    3.3785    1.0000 </r>
       <r>    3.4765    1.0000 </r>
       <r>    3.5154    1.0000 </r>
       <r>    3.5994    1.0000 </r>
       <r>    3.6448    1.0000 </r>
       <r>    3.7624    1.0000 </r>
       <r>    3.8299    1.0000 </r>
       <r>    3.9209    1.0000 </r>
       <r>    3.9239    1.0000 </r>
       <r>    3.9942    1.0000 </r>
       <r>    4.0056    1.0000 </r>
       <r>    4.0865    1.0000 </r>
       <r>    4.1306    1.0000 </r>
       <r>    4.1937    1.0000 </r>
       <r>    4.2598    1.0000 </r>
       <r>    4.3216    1.0000 </r>
       <r>    4.4007    1.0000 </r>
       <r>    4.4493    1.0000 </r>
       <r>    4.5043    1.0000 </r>
       <r>    4.6119    1.0000 </r>
       <r>    4.6810    1.0000 </r>
       <r>    4.7627    1.0000 </r>
       <r>    4.7990    1.0000 </r>
       <r>    4.8500    1.0000 </r>
       <r>    4.8861    1.0000 </r>
       <r>    4.9305    1.0000 </r>
       <r>    4.9799    1.0000 </r>
       <r>    4.9962    1.0000 </r>
       <r>    5.0272    1.0000 </r>
       <r>    5.0471    1.0000 </r>
       <r>    5.1006    1.0000 </r>
       <r>    5.1400    1.0000 </r>
       <r>    5.1740    1.0000 </r>
       <r>    5.2032    1.0000 </r>
       <r>    5.2489    1.0000 </r>
       <r>    5.2926    1.0000 </r>
       <r>    5.3683    1.0000 </r>
       <r>    5.4052    1.0000 </r>
       <r>    5.4505    1.0000 </r>
       <r>    5.5129    1.0000 </r>
       <r>    5.5990    1.0000 </r>
       <r>    5.6299    1.0000 </r>
       <r>    5.6828    1.0000 </r>
       <r>    5.6956    1.0000 </r>
       <r>    5.7543    1.0000 </r>
       <r>    5.8152    1.0000 </r>
       <r>    5.8636    1.0000 </r>
       <r>    5.9153    1.0000 </r>
       <r>    5.9444    1.0000 </r>
       <r>    5.9858    1.0000 </r>
       <r>    6.0514    1.0000 </r>
       <r>    6.1089    1.0000 </r>
       <r>    6.1511    1.0000 </r>
       <r>    6.1863    1.0000 </r>
       <r>    6.2240    1.0000 </r>
       <r>    6.2852    1.0001 </r>
       <r>    6.3067    1.0001 </r>
       <r>    6.3340    1.0002 </r>
       <r>    6.4021    1.0012 </r>
       <r>    6.4555    1.0035 </r>
       <r>    6.4988    1.0076 </r>
       <r>    6.5544    1.0170 </r>
       <r>    6.5947    1.0260 </r>
       <r>    6.6137    1.0302 </r>
       <r>    6.6646    1.0352 </r>
       <r>    6.7111    1.0196 </r>
       <r>    6.7629    0.9580 </r>
       <r>    6.8228    0.8070 </r>
       <r>    6.8667    0.6462 </r>
       <r>    6.9228    0.4119 </r>
       <r>    6.9471    0.3138 </r>
       <r>    6.9889    0.1675 </r>
       <r>    7.0731   -0.0031 </r>
       <r>    7.2106   -0.0257 </r>
       <r>    7.2854   -0.0103 </r>
       <r>    7.8230   -0.0000 </r>
       <r>    8.2407   -0.0000 </r>
       <r>    8.3780   -0.0000 </r>
       <r>    8.6091   -0.0000 </r>
       <r>    8.6320   -0.0000 </r>
       <r>    8.7690   -0.0000 </r>
       <r>    8.8206   -0.0000 </r>
       <r>    8.8693   -0.0000 </r>
       <r>    8.9824   -0.0000 </r>
       <r>    9.0286   -0.0000 </r>
       <r>    9.0886   -0.0000 </r>
       <r>    9.1217   -0.0000 </r>
       <r>    9.1705   -0.0000 </r>
       <r>    9.2075   -0.0000 </r>
       <r>    9.3416   -0.0000 </r>
       <r>    9.4095   -0.0000 </r>
      </set>
      <set comment="kpoint 8">
       <r>  -47.0899    1.0000 </r>
       <r>  -47.0799    1.0000 </r>
       <r>  -47.0428    1.0000 </r>
       <r>  -46.9847    1.0000 </r>
       <r>  -46.9465    1.0000 </r>
       <r>  -46.8787    1.0000 </r>
       <r>  -23.6582    1.0000 </r>
       <r>  -23.5854    1.0000 </r>
       <r>  -23.5192    1.0000 </r>
       <r>  -23.4097    1.0000 </r>
       <r>  -23.2945    1.0000 </r>
       <r>  -23.2751    1.0000 </r>
       <r>  -23.2614    1.0000 </r>
       <r>  -23.2284    1.0000 </r>
       <r>  -23.2128    1.0000 </r>
       <r>  -23.1800    1.0000 </r>
       <r>  -23.1705    1.0000 </r>
       <r>  -23.1530    1.0000 </r>
       <r>  -23.0786    1.0000 </r>
       <r>  -23.0496    1.0000 </r>
       <r>  -22.9443    1.0000 </r>
       <r>  -22.9109    1.0000 </r>
       <r>  -22.8432    1.0000 </r>
       <r>  -22.6977    1.0000 </r>
       <r>   -0.0326    1.0000 </r>
       <r>    1.4073    1.0000 </r>
       <r>    1.7707    1.0000 </r>
       <r>    1.9754    1.0000 </r>
       <r>    2.2616    1.0000 </r>
       <r>    2.5016    1.0000 </r>
       <r>    2.6201    1.0000 </r>
       <r>    2.7089    1.0000 </r>
       <r>    2.7922    1.0000 </r>
       <r>    2.8932    1.0000 </r>
       <r>    2.9233    1.0000 </r>
       <r>    3.0088    1.0000 </r>
       <r>    3.0526    1.0000 </r>
       <r>    3.0784    1.0000 </r>
       <r>    3.1676    1.0000 </r>
       <r>    3.2830    1.0000 </r>
       <r>    3.4173    1.0000 </r>
       <r>    3.4621    1.0000 </r>
       <r>    3.5484    1.0000 </r>
       <r>    3.5814    1.0000 </r>
       <r>    3.7314    1.0000 </r>
       <r>    3.8067    1.0000 </r>
       <r>    3.8533    1.0000 </r>
       <r>    3.9369    1.0000 </r>
       <r>    3.9816    1.0000 </r>
       <r>    4.0271    1.0000 </r>
       <r>    4.1052    1.0000 </r>
       <r>    4.1213    1.0000 </r>
       <r>    4.2053    1.0000 </r>
       <r>    4.2860    1.0000 </r>
       <r>    4.3588    1.0000 </r>
       <r>    4.4536    1.0000 </r>
       <r>    4.6685    1.0000 </r>
       <r>    4.7052    1.0000 </r>
       <r>    4.7468    1.0000 </r>
       <r>    4.7901    1.0000 </r>
       <r>    4.7945    1.0000 </r>
       <r>    4.8714    1.0000 </r>
       <r>    4.9157    1.0000 </r>
       <r>    4.9361    1.0000 </r>
       <r>    4.9890    1.0000 </r>
       <r>    5.0541    1.0000 </r>
       <r>    5.0838    1.0000 </r>
       <r>    5.1103    1.0000 </r>
       <r>    5.1642    1.0000 </r>
       <r>    5.2152    1.0000 </r>
       <r>    5.2292    1.0000 </r>
       <r>    5.2956    1.0000 </r>
       <r>    5.3130    1.0000 </r>
       <r>    5.3794    1.0000 </r>
       <r>    5.5108    1.0000 </r>
       <r>    5.6303    1.0000 </r>
       <r>    5.6500    1.0000 </r>
       <r>    5.7661    1.0000 </r>
       <r>    5.8437    1.0000 </r>
       <r>    5.9828    1.0000 </r>
       <r>    6.0130    1.0000 </r>
       <r>    6.0720    1.0000 </r>
       <r>    6.0853    1.0000 </r>
       <r>    6.1284    1.0000 </r>
       <r>    6.1752    1.0000 </r>
       <r>    6.2202    1.0000 </r>
       <r>    6.2547    1.0000 </r>
       <r>    6.3278    1.0002 </r>
       <r>    6.3758    1.0006 </r>
       <r>    6.3980    1.0011 </r>
       <r>    6.4386    1.0025 </r>
       <r>    6.4861    1.0062 </r>
       <r>    6.5121    1.0094 </r>
       <r>    6.5488    1.0158 </r>
       <r>    6.5847    1.0237 </r>
       <r>    6.6009    1.0274 </r>
       <r>    6.6534    1.0354 </r>
       <r>    6.7470    0.9830 </r>
       <r>    6.8102    0.8463 </r>
       <r>    6.9010    0.5034 </r>
       <r>    6.9684    0.2348 </r>
       <r>    7.0000    0.1349 </r>
       <r>    7.0475    0.0305 </r>
       <r>    7.1080   -0.0280 </r>
       <r>    7.1554   -0.0352 </r>
       <r>    7.1941   -0.0293 </r>
       <r>    7.2408   -0.0188 </r>
       <r>    7.3352   -0.0045 </r>
       <r>    7.4975   -0.0001 </r>
       <r>    7.6207   -0.0000 </r>
       <r>    7.7214   -0.0000 </r>
       <r>    7.8671   -0.0000 </r>
       <r>    8.0072   -0.0000 </r>
       <r>    8.0452   -0.0000 </r>
       <r>    8.2101   -0.0000 </r>
       <r>    8.3000   -0.0000 </r>
       <r>    8.4162   -0.0000 </r>
       <r>    8.4692   -0.0000 </r>
       <r>    8.5970   -0.0000 </r>
       <r>    8.7823   -0.0000 </r>
       <r>    8.8168   -0.0000 </r>
       <r>    8.8667   -0.0000 </r>
       <r>    8.9474   -0.0000 </r>
       <r>    8.9851   -0.0000 </r>
       <r>    9.0490   -0.0000 </r>
       <r>    9.0613   -0.0000 </r>
       <r>    9.1508   -0.0000 </r>
       <r>    9.2401   -0.0000 </r>
      </set>
      <set comment="kpoint 9">
       <r>  -47.0897    1.0000 </r>
       <r>  -47.0802    1.0000 </r>
       <r>  -47.0428    1.0000 </r>
       <r>  -46.9847    1.0000 </r>
       <r>  -46.9464    1.0000 </r>
       <r>  -46.8787    1.0000 </r>
       <r>  -23.6569    1.0000 </r>
       <r>  -23.5845    1.0000 </r>
       <r>  -23.5170    1.0000 </r>
       <r>  -23.4121    1.0000 </r>
       <r>  -23.2940    1.0000 </r>
       <r>  -23.2741    1.0000 </r>
       <r>  -23.2608    1.0000 </r>
       <r>  -23.2278    1.0000 </r>
       <r>  -23.2127    1.0000 </r>
       <r>  -23.1801    1.0000 </r>
       <r>  -23.1707    1.0000 </r>
       <r>  -23.1527    1.0000 </r>
       <r>  -23.0786    1.0000 </r>
       <r>  -23.0496    1.0000 </r>
       <r>  -22.9439    1.0000 </r>
       <r>  -22.9109    1.0000 </r>
       <r>  -22.8432    1.0000 </r>
       <r>  -22.6983    1.0000 </r>
       <r>    0.0550    1.0000 </r>
       <r>    0.7708    1.0000 </r>
       <r>    1.6997    1.0000 </r>
       <r>    1.9137    1.0000 </r>
       <r>    2.2539    1.0000 </r>
       <r>    2.3625    1.0000 </r>
       <r>    2.5151    1.0000 </r>
       <r>    2.6013    1.0000 </r>
       <r>    2.6548    1.0000 </r>
       <r>    2.7687    1.0000 </r>
       <r>    2.8854    1.0000 </r>
       <r>    2.9705    1.0000 </r>
       <r>    3.0678    1.0000 </r>
       <r>    3.1837    1.0000 </r>
       <r>    3.2261    1.0000 </r>
       <r>    3.2923    1.0000 </r>
       <r>    3.3723    1.0000 </r>
       <r>    3.4125    1.0000 </r>
       <r>    3.4739    1.0000 </r>
       <r>    3.5378    1.0000 </r>
       <r>    3.6000    1.0000 </r>
       <r>    3.6795    1.0000 </r>
       <r>    3.7396    1.0000 </r>
       <r>    3.7655    1.0000 </r>
       <r>    3.8581    1.0000 </r>
       <r>    3.9041    1.0000 </r>
       <r>    3.9557    1.0000 </r>
       <r>    3.9856    1.0000 </r>
       <r>    4.0569    1.0000 </r>
       <r>    4.1789    1.0000 </r>
       <r>    4.4061    1.0000 </r>
       <r>    4.5050    1.0000 </r>
       <r>    4.5977    1.0000 </r>
       <r>    4.6306    1.0000 </r>
       <r>    4.7258    1.0000 </r>
       <r>    4.7889    1.0000 </r>
       <r>    4.8264    1.0000 </r>
[...]
       <r>    5.3073    1.0000 </r>
       <r>    5.3623    1.0000 </r>
       <r>    5.3913    1.0000 </r>
       <r>    5.4129    1.0000 </r>
       <r>    5.4493    1.0000 </r>
       <r>    5.4782    1.0000 </r>
       <r>    5.5615    1.0000 </r>
       <r>    5.6000    1.0000 </r>
       <r>    5.6633    1.0000 </r>
       <r>    5.7314    1.0000 </r>
       <r>    5.7943    1.0000 </r>
       <r>    5.8884    1.0000 </r>
       <r>    5.9290    1.0000 </r>
       <r>    5.9678    1.0000 </r>
       <r>    6.0286    1.0000 </r>
       <r>    6.0564    1.0000 </r>
       <r>    6.1102    1.0000 </r>
       <r>    6.1315    1.0000 </r>
       <r>    6.2006    1.0000 </r>
       <r>    6.2355    1.0000 </r>
       <r>    6.2733    1.0000 </r>
       <r>    6.3299    1.0002 </r>
       <r>    6.3598    1.0004 </r>
       <r>    6.4156    1.0016 </r>
       <r>    6.4527    1.0033 </r>
       <r>    6.4850    1.0060 </r>
       <r>    6.5364    1.0134 </r>
       <r>    6.5892    1.0248 </r>
       <r>    6.6653    1.0352 </r>
       <r>    6.7199    1.0130 </r>
       <r>    6.7545    0.9719 </r>
       <r>    6.7971    0.8828 </r>
       <r>    6.8585    0.6786 </r>
       <r>    6.9736    0.2170 </r>
       <r>    6.9894    0.1658 </r>
       <r>    7.0299    0.0626 </r>
       <r>    7.0877   -0.0162 </r>
       <r>    7.2579   -0.0152 </r>
       <r>    7.3151   -0.0064 </r>
       <r>    7.4268   -0.0007 </r>
       <r>    7.6565   -0.0000 </r>
       <r>    7.7360   -0.0000 </r>
       <r>    7.8408   -0.0000 </r>
       <r>    8.0227   -0.0000 </r>
       <r>    8.0867   -0.0000 </r>
       <r>    8.1733   -0.0000 </r>
       <r>    8.2669   -0.0000 </r>
       <r>    8.3129   -0.0000 </r>
       <r>    8.4108   -0.0000 </r>
       <r>    8.4246   -0.0000 </r>
       <r>    8.5173   -0.0000 </r>
       <r>    8.5784   -0.0000 </r>
       <r>    8.6675   -0.0000 </r>
       <r>    8.7472   -0.0000 </r>
       <r>    8.8879   -0.0000 </r>
       <r>    8.9447   -0.0000 </r>
       <r>    8.9776   -0.0000 </r>
       <r>    9.0304   -0.0000 </r>
       <r>    9.1069   -0.0000 </r>
       <r>    9.1593   -0.0000 </r>
      </set>
     </set>
    </set>
   </array>
  </eigenvalues>
  <separator name="orbital magnetization" >
   <v name="MAGDIPOLOUT">      0.00000000      0.00000000      0.00000000</v>
  </separator>
  <dos>
   <i name="efermi">      6.90180578 </i>
   <total>
    <array>
     <dimension dim="1">gridpoints</dimension>
     <dimension dim="2">spin</dimension>
     <field>energy</field>
     <field>total</field>
     <field>integrated</field>
     <set>
      <set comment="spin 1">
       <r>   -49.9175     0.0000     0.0000 </r>
       <r>   -49.7102     0.0000     0.0000 </r>
       <r>   -49.5029     0.0000     0.0000 </r>
       <r>   -49.2955     0.0000     0.0000 </r>
       <r>   -49.0882     0.0000     0.0000 </r>
       <r>   -48.8809    -0.0000    -0.0000 </r>
       <r>   -48.6736    -0.0000    -0.0000 </r>
       <r>   -48.4663    -0.0000    -0.0000 </r>
       <r>   -48.2590    -0.0000    -0.0000 </r>
       <r>   -48.0517    -0.0000    -0.0000 </r>
       <r>   -47.8444    -0.0000    -0.0000 </r>
       <r>   -47.6371    -0.0078    -0.0016 </r>
       <r>   -47.4298    -0.4787    -0.1009 </r>
       <r>   -47.2225     0.4157    -0.0147 </r>
       <r>   -47.0152    27.2166     5.6275 </r>
       <r>   -46.8079    29.2499    11.6912 </r>
       <r>   -46.6006     2.1333    12.1334 </r>
       <r>   -46.3933    -0.6236    12.0041 </r>
       <r>   -46.1860    -0.0199    12.0000 </r>
       <r>   -45.9786    -0.0001    12.0000 </r>
       <r>   -45.7713    -0.0000    12.0000 </r>
       <r>   -45.5640    -0.0000    12.0000 </r>
       <r>   -45.3567     0.0000    12.0000 </r>
       <r>   -45.1494     0.0000    12.0000 </r>
       <r>   -44.9421     0.0000    12.0000 </r>
       <r>   -44.7348     0.0000    12.0000 </r>
       <r>   -44.5275     0.0000    12.0000 </r>
       <r>   -44.3202     0.0000    12.0000 </r>
       <r>   -44.1129     0.0000    12.0000 </r>
       <r>   -43.9056     0.0000    12.0000 </r>
       <r>   -43.6983     0.0000    12.0000 </r>
       <r>   -43.4910     0.0000    12.0000 </r>
       <r>   -43.2837     0.0000    12.0000 </r>
       <r>   -43.0764     0.0000    12.0000 </r>
       <r>   -42.8691     0.0000    12.0000 </r>
       <r>   -42.6617     0.0000    12.0000 </r>
       <r>   -42.4544     0.0000    12.0000 </r>
       <r>   -42.2471     0.0000    12.0000 </r>
       <r>   -42.0398     0.0000    12.0000 </r>
       <r>   -41.8325     0.0000    12.0000 </r>
       <r>   -41.6252     0.0000    12.0000 </r>
       <r>   -41.4179     0.0000    12.0000 </r>
       <r>   -41.2106     0.0000    12.0000 </r>
       <r>   -41.0033     0.0000    12.0000 </r>
       <r>   -40.7960     0.0000    12.0000 </r>
       <r>   -40.5887     0.0000    12.0000 </r>
       <r>   -40.3814     0.0000    12.0000 </r>
       <r>   -40.1741     0.0000    12.0000 </r>
       <r>   -39.9668     0.0000    12.0000 </r>
       <r>   -39.7595     0.0000    12.0000 </r>
       <r>   -39.5522     0.0000    12.0000 </r>
       <r>   -39.3448     0.0000    12.0000 </r>
       <r>   -39.1375     0.0000    12.0000 </r>
       <r>   -38.9302     0.0000    12.0000 </r>
       <r>   -38.7229     0.0000    12.0000 </r>
       <r>   -38.5156     0.0000    12.0000 </r>
       <r>   -38.3083     0.0000    12.0000 </r>
       <r>   -38.1010     0.0000    12.0000 </r>
       <r>   -37.8937     0.0000    12.0000 </r>
       <r>   -37.6864     0.0000    12.0000 </r>
       <r>   -37.4791     0.0000    12.0000 </r>
       <r>   -37.2718     0.0000    12.0000 </r>
       <r>   -37.0645     0.0000    12.0000 </r>
       <r>   -36.8572     0.0000    12.0000 </r>
       <r>   -36.6499     0.0000    12.0000 </r>
       <r>   -36.4426     0.0000    12.0000 </r>
       <r>   -36.2353     0.0000    12.0000 </r>
       <r>   -36.0279     0.0000    12.0000 </r>
       <r>   -35.8206     0.0000    12.0000 </r>
       <r>   -35.6133     0.0000    12.0000 </r>
       <r>   -35.4060     0.0000    12.0000 </r>
       <r>   -35.1987     0.0000    12.0000 </r>
       <r>   -34.9914     0.0000    12.0000 </r>
       <r>   -34.7841     0.0000    12.0000 </r>
       <r>   -34.5768     0.0000    12.0000 </r>
       <r>   -34.3695     0.0000    12.0000 </r>
       <r>   -34.1622     0.0000    12.0000 </r>
       <r>   -33.9549     0.0000    12.0000 </r>
       <r>   -33.7476     0.0000    12.0000 </r>
       <r>   -33.5403     0.0000    12.0000 </r>
       <r>   -33.3330     0.0000    12.0000 </r>
       <r>   -33.1257     0.0000    12.0000 </r>
       <r>   -32.9184     0.0000    12.0000 </r>
       <r>   -32.7110     0.0000    12.0000 </r>
       <r>   -32.5037     0.0000    12.0000 </r>
       <r>   -32.2964     0.0000    12.0000 </r>
       <r>   -32.0891     0.0000    12.0000 </r>
       <r>   -31.8818     0.0000    12.0000 </r>
       <r>   -31.6745     0.0000    12.0000 </r>
       <r>   -31.4672     0.0000    12.0000 </r>
       <r>   -31.2599     0.0000    12.0000 </r>
       <r>   -31.0526     0.0000    12.0000 </r>
       <r>   -30.8453     0.0000    12.0000 </r>
       <r>   -30.6380     0.0000    12.0000 </r>
       <r>   -30.4307     0.0000    12.0000 </r>
       <r>   -30.2234     0.0000    12.0000 </r>
       <r>   -30.0161     0.0000    12.0000 </r>
       <r>   -29.8088     0.0000    12.0000 </r>
       <r>   -29.6014     0.0000    12.0000 </r>
       <r>   -29.3941     0.0000    12.0000 </r>
       <r>   -29.1868     0.0000    12.0000 </r>
       <r>   -28.9795     0.0000    12.0000 </r>
       <r>   -28.7722     0.0000    12.0000 </r>
       <r>   -28.5649     0.0000    12.0000 </r>
       <r>   -28.3576     0.0000    12.0000 </r>
       <r>   -28.1503     0.0000    12.0000 </r>
       <r>   -27.9430     0.0000    12.0000 </r>
       <r>   -27.7357     0.0000    12.0000 </r>
       <r>   -27.5284     0.0000    12.0000 </r>
       <r>   -27.3211     0.0000    12.0000 </r>
       <r>   -27.1138     0.0000    12.0000 </r>
       <r>   -26.9065     0.0000    12.0000 </r>
       <r>   -26.6992     0.0000    12.0000 </r>
       <r>   -26.4919     0.0000    12.0000 </r>
       <r>   -26.2845     0.0000    12.0000 </r>
       <r>   -26.0772     0.0000    12.0000 </r>
       <r>   -25.8699     0.0000    12.0000 </r>
       <r>   -25.6626     0.0000    12.0000 </r>
       <r>   -25.4553    -0.0000    12.0000 </r>
       <r>   -25.2480    -0.0000    12.0000 </r>
       <r>   -25.0407    -0.0000    12.0000 </r>
       <r>   -24.8334    -0.0000    12.0000 </r>
       <r>   -24.6261    -0.0000    12.0000 </r>
       <r>   -24.4188    -0.0000    12.0000 </r>
       <r>   -24.2115    -0.0036    11.9992 </r>
       <r>   -24.0042    -0.2362    11.9503 </r>
       <r>   -23.7969    -0.0736    11.9350 </r>
       <r>   -23.5896    13.3335    14.6991 </r>
       <r>   -23.3823    24.2353    19.7233 </r>
       <r>   -23.1750    55.2274    31.1723 </r>
       <r>   -22.9676    48.8016    41.2891 </r>
       <r>   -22.7603    24.0928    46.2837 </r>
       <r>   -22.5530     8.5078    48.0474 </r>
       <r>   -22.3457    -0.0591    48.0352 </r>
       <r>   -22.1384    -0.1671    48.0006 </r>
       <r>   -21.9311    -0.0027    48.0000 </r>
       <r>   -21.7238    -0.0000    48.0000 </r>
       <r>   -21.5165    -0.0000    48.0000 </r>
       <r>   -21.3092    -0.0000    48.0000 </r>
       <r>   -21.1019     0.0000    48.0000 </r>
       <r>   -20.8946     0.0000    48.0000 </r>
       <r>   -20.6873     0.0000    48.0000 </r>
       <r>   -20.4800     0.0000    48.0000 </r>
       <r>   -20.2727     0.0000    48.0000 </r>
       <r>   -20.0654     0.0000    48.0000 </r>
       <r>   -19.8581     0.0000    48.0000 </r>
       <r>   -19.6507     0.0000    48.0000 </r>
       <r>   -19.4434     0.0000    48.0000 </r>
       <r>   -19.2361     0.0000    48.0000 </r>
       <r>   -19.0288     0.0000    48.0000 </r>
       <r>   -18.8215     0.0000    48.0000 </r>
       <r>   -18.6142     0.0000    48.0000 </r>
       <r>   -18.4069     0.0000    48.0000 </r>
       <r>   -18.1996     0.0000    48.0000 </r>
       <r>   -17.9923     0.0000    48.0000 </r>
       <r>   -17.7850     0.0000    48.0000 </r>
       <r>   -17.5777     0.0000    48.0000 </r>
       <r>   -17.3704     0.0000    48.0000 </r>
       <r>   -17.1631     0.0000    48.0000 </r>
       <r>   -16.9558     0.0000    48.0000 </r>
       <r>   -16.7485     0.0000    48.0000 </r>
       <r>   -16.5412     0.0000    48.0000 </r>
       <r>   -16.3338     0.0000    48.0000 </r>
       <r>   -16.1265     0.0000    48.0000 </r>
       <r>   -15.9192     0.0000    48.0000 </r>
       <r>   -15.7119     0.0000    48.0000 </r>
       <r>   -15.5046     0.0000    48.0000 </r>
       <r>   -15.2973     0.0000    48.0000 </r>
       <r>   -15.0900     0.0000    48.0000 </r>
       <r>   -14.8827     0.0000    48.0000 </r>
       <r>   -14.6754     0.0000    48.0000 </r>
       <r>   -14.4681     0.0000    48.0000 </r>
       <r>   -14.2608     0.0000    48.0000 </r>
       <r>   -14.0535     0.0000    48.0000 </r>
       <r>   -13.8462     0.0000    48.0000 </r>
       <r>   -13.6389     0.0000    48.0000 </r>
       <r>   -13.4316     0.0000    48.0000 </r>
       <r>   -13.2243     0.0000    48.0000 </r>
       <r>   -13.0169     0.0000    48.0000 </r>
       <r>   -12.8096     0.0000    48.0000 </r>
       <r>   -12.6023     0.0000    48.0000 </r>
       <r>   -12.3950     0.0000    48.0000 </r>
       <r>   -12.1877     0.0000    48.0000 </r>
       <r>   -11.9804     0.0000    48.0000 </r>
       <r>   -11.7731     0.0000    48.0000 </r>
       <r>   -11.5658     0.0000    48.0000 </r>
       <r>   -11.3585     0.0000    48.0000 </r>
       <r>   -11.1512     0.0000    48.0000 </r>
       <r>   -10.9439     0.0000    48.0000 </r>
       <r>   -10.7366     0.0000    48.0000 </r>
       <r>   -10.5293     0.0000    48.0000 </r>
       <r>   -10.3220     0.0000    48.0000 </r>
       <r>   -10.1147     0.0000    48.0000 </r>
       <r>    -9.9074     0.0000    48.0000 </r>
       <r>    -9.7000     0.0000    48.0000 </r>
       <r>    -9.4927     0.0000    48.0000 </r>
       <r>    -9.2854     0.0000    48.0000 </r>
       <r>    -9.0781     0.0000    48.0000 </r>
       <r>    -8.8708     0.0000    48.0000 </r>
       <r>    -8.6635     0.0000    48.0000 </r>
       <r>    -8.4562     0.0000    48.0000 </r>
       <r>    -8.2489     0.0000    48.0000 </r>
       <r>    -8.0416     0.0000    48.0000 </r>
       <r>    -7.8343     0.0000    48.0000 </r>
       <r>    -7.6270     0.0000    48.0000 </r>
       <r>    -7.4197     0.0000    48.0000 </r>
       <r>    -7.2124     0.0000    48.0000 </r>
       <r>    -7.0051     0.0000    48.0000 </r>
       <r>    -6.7978     0.0000    48.0000 </r>
       <r>    -6.5905     0.0000    48.0000 </r>
       <r>    -6.3831     0.0000    48.0000 </r>
       <r>    -6.1758     0.0000    48.0000 </r>
       <r>    -5.9685     0.0000    48.0000 </r>
       <r>    -5.7612     0.0000    48.0000 </r>
       <r>    -5.5539     0.0000    48.0000 </r>
       <r>    -5.3466     0.0000    48.0000 </r>
       <r>    -5.1393     0.0000    48.0000 </r>
       <r>    -4.9320     0.0000    48.0000 </r>
       <r>    -4.7247     0.0000    48.0000 </r>
       <r>    -4.5174     0.0000    48.0000 </r>
       <r>    -4.3101     0.0000    48.0000 </r>
       <r>    -4.1028     0.0000    48.0000 </r>
       <r>    -3.8955     0.0000    48.0000 </r>
       <r>    -3.6882     0.0000    48.0000 </r>
       <r>    -3.4809     0.0000    48.0000 </r>
       <r>    -3.2736     0.0000    48.0000 </r>
       <r>    -3.0662     0.0000    48.0000 </r>
       <r>    -2.8589     0.0000    48.0000 </r>
       <r>    -2.6516     0.0000    48.0000 </r>
       <r>    -2.4443     0.0000    48.0000 </r>
       <r>    -2.2370    -0.0000    48.0000 </r>
       <r>    -2.0297    -0.0000    48.0000 </r>
       <r>    -1.8224    -0.0000    48.0000 </r>
       <r>    -1.6151    -0.0000    48.0000 </r>
       <r>    -1.4078    -0.0000    48.0000 </r>
       <r>    -1.2005    -0.0000    48.0000 </r>
       <r>    -0.9932    -0.0000    48.0000 </r>
       <r>    -0.7859    -0.0027    47.9994 </r>
       <r>    -0.5786    -0.0141    47.9965 </r>
       <r>    -0.3713     0.1693    48.0316 </r>
       <r>    -0.1640     0.8476    48.2073 </r>
       <r>     0.0433     1.5378    48.5261 </r>
       <r>     0.2507     1.6129    48.8605 </r>
       <r>     0.4580     1.7591    49.2251 </r>
       <r>     0.6653     2.2831    49.6984 </r>
       <r>     0.8726     2.6636    50.2506 </r>
       <r>     1.0799     2.9117    50.8542 </r>
       <r>     1.2872     3.0557    51.4877 </r>
       <r>     1.4945     4.3734    52.3943 </r>
       <r>     1.7018     4.7165    53.3721 </r>
       <r>     1.9091     3.6608    54.1310 </r>
       <r>     2.1164     5.1943    55.2078 </r>
       <r>     2.3237     7.8435    56.8338 </r>
       <r>     2.5310    12.9337    59.5150 </r>
       <r>     2.7383    16.6381    62.9642 </r>
       <r>     2.9456    20.8723    67.2912 </r>
       <r>     3.1529    23.5868    72.1809 </r>
       <r>     3.3602    26.8222    77.7413 </r>
       <r>     3.5676    31.3796    84.2465 </r>
       <r>     3.7749    32.9861    91.0847 </r>
       <r>     3.9822    31.9865    97.7157 </r>
       <r>     4.1895    32.1450   104.3796 </r>
       <r>     4.3968    25.2863   109.6216 </r>
       <r>     4.6041    18.7158   113.5015 </r>
       <r>     4.8114    28.0947   119.3257 </r>
       <r>     5.0187    40.8838   127.8012 </r>
       <r>     5.2260    46.1829   137.3752 </r>
       <r>     5.4333    42.7573   146.2390 </r>
       <r>     5.6406    36.9987   153.9091 </r>
       <r>     5.8479    35.4008   161.2479 </r>
       <r>     6.0552    38.6026   169.2505 </r>
       <r>     6.2625    43.1856   178.2031 </r>
       <r>     6.4698    44.5690   187.4425 </r>
       <r>     6.6771    40.6578   195.8711 </r>
       <r>     6.8845    36.3462   203.4059 </r>
       <r>     7.0918    31.8296   210.0044 </r>
       <r>     7.2991    23.6375   214.9046 </r>
       <r>     7.5064    16.0052   218.2226 </r>
       <r>     7.7137    14.3330   221.1939 </r>
       <r>     7.9210    13.1235   223.9145 </r>
       <r>     8.1283    14.0465   226.8264 </r>
       <r>     8.3356    16.3721   230.2205 </r>
       <r>     8.5429    20.4063   234.4508 </r>
       <r>     8.7502    25.0147   239.6365 </r>
       <r>     8.9575    28.4780   245.5402 </r>
       <r>     9.1648    28.5293   251.4545 </r>
       <r>     9.3721    18.4241   255.2739 </r>
       <r>     9.5794     3.9351   256.0897 </r>
       <r>     9.7867    -0.3772   256.0115 </r>
       <r>     9.9940    -0.0550   256.0001 </r>
       <r>    10.2014    -0.0006   256.0000 </r>
       <r>    10.4087    -0.0000   256.0000 </r>
       <r>    10.6160    -0.0000   256.0000 </r>
       <r>    10.8233    -0.0000   256.0000 </r>
       <r>    11.0306     0.0000   256.0000 </r>
       <r>    11.2379     0.0000   256.0000 </r>
       <r>    11.4452     0.0000   256.0000 </r>
       <r>    11.6525     0.0000   256.0000 </r>
       <r>    11.8598     0.0000   256.0000 </r>
       <r>    12.0671     0.0000   256.0000 </r>
       <r>    12.2744     0.0000   256.0000 </r>
      </set>
     </set>
    </array>
   </total>
  </dos>
 </calculation>
 <structure name="finalpos" >
  <crystal>
   <varray name="basis" >
    <v>       0.00000000       0.00000000       6.38000000 </v>
    <v>       7.97500000       1.59500000       1.59500000 </v>
    <v>       0.00000000       9.57000000       3.19000000 </v>
   </varray>
   <i name="volume">    486.92638500 </i>
   <varray name="rec_basis" >
    <v>      -0.02089864      -0.05224660       0.15673981 </v>
    <v>       0.12539185       0.00000000       0.00000000 </v>
    <v>      -0.02089864       0.10449321       0.00000000 </v>
   </varray>
  </crystal>
  <varray name="positions" >
   <v>       0.00000000       0.00000000       0.00000000 </v>
   <v>       0.83333333       0.00000000       0.33333333 </v>
   <v>       0.10000000       0.40000000       0.60000000 </v>
   <v>       0.20000000       0.80000000       0.20000000 </v>
   <v>       0.80000000       0.20000000       0.80000000 </v>
   <v>       0.93333333       0.40000000       0.93333333 </v>
   <v>       0.50000000       0.00000000       0.00000000 </v>
   <v>       0.33333333       0.00000000       0.33333333 </v>
   <v>       0.46666667       0.20000000       0.46666667 </v>
   <v>       0.23333333       0.60000000       0.73333333 </v>
   <v>       0.73333333       0.60000000       0.73333333 </v>
   <v>       0.86666667       0.80000000       0.86666667 </v>
   <v>       0.13333333       0.20000000       0.13333333 </v>
   <v>       0.63333333       0.20000000       0.13333333 </v>
   <v>       0.66666667       0.00000000       0.66666667 </v>
   <v>       0.76666667       0.40000000       0.26666667 </v>
   <v>       0.40000000       0.60000000       0.40000000 </v>
   <v>       0.60000000       0.40000000       0.60000000 </v>
   <v>       0.16666667       0.00000000       0.66666667 </v>
   <v>       0.26666667       0.40000000       0.26666667 </v>
   <v>       0.30000000       0.20000000       0.80000000 </v>
   <v>       0.90000000       0.60000000       0.40000000 </v>
   <v>       0.53333333       0.80000000       0.53333333 </v>
   <v>       0.36666667       0.80000000       0.86666667 </v>
   <v>       0.06666667       0.60000000       0.06666667 </v>
   <v>       0.56666667       0.60000000       0.06666667 </v>
   <v>       0.96666667       0.20000000       0.46666667 </v>
   <v>       0.70000000       0.80000000       0.20000000 </v>
   <v>       0.03333333       0.80000000       0.53333333 </v>
   <v>       0.43333333       0.40000000       0.93333333 </v>
  </varray>
 </structure>
</modeling>
