  29  29   0   0
  0.1632129E+02  0.5473281E-09  0.8209921E-09  0.1128346E-08  0.5000000E-15
  1.000000000000000E-004
  CAR 
 Nb - Mo - Ta - Ti - V SQS               
     11.64575537    -50.38664846  301      6.66197429      1.00000000
    -50.387  0.0000E+00  0.0000E+00
    -50.180  0.0000E+00  0.0000E+00
    -49.973  0.0000E+00  0.0000E+00
    -49.766  0.0000E+00  0.0000E+00
    -49.560  0.0000E+00  0.0000E+00
    -49.353 -0.4504E-35 -0.9312E-36
    -49.146 -0.1644E-27 -0.3400E-28
    -48.939 -0.6545E-21 -0.1353E-21
    -48.732 -0.2945E-15 -0.6089E-16
    -48.526 -0.1567E-10 -0.3241E-11
    -48.319 -0.9500E-07 -0.1965E-07
    -48.112 -0.6371E-04 -0.1319E-04
    -47.905 -0.4188E-02 -0.8792E-03
    -47.699 -0.1921E-02 -0.1276E-02
    -47.492  0.2384E+00  0.4802E-01
    -47.285  0.5090E+00  0.1533E+00
    -47.078  0.3893E+00  0.2338E+00
    -46.871  0.3997E-01  0.2420E+00
    -46.665 -0.9464E-02  0.2401E+00
    -46.458 -0.3588E-03  0.2400E+00
    -46.251 -0.1190E-05  0.2400E+00
    -46.044 -0.4217E-09  0.2400E+00
    -45.838 -0.1670E-13  0.2400E+00
    -45.631  0.0000E+00  0.2400E+00
    -45.424  0.0000E+00  0.2400E+00
    -45.217  0.0000E+00  0.2400E+00
    -45.011  0.0000E+00  0.2400E+00
    -44.804  0.0000E+00  0.2400E+00
    -44.597  0.0000E+00  0.2400E+00
    -44.390  0.0000E+00  0.2400E+00
    -44.183  0.0000E+00  0.2400E+00
    -43.977  0.0000E+00  0.2400E+00
    -43.770  0.0000E+00  0.2400E+00
    -43.563  0.0000E+00  0.2400E+00
    -43.356  0.0000E+00  0.2400E+00
    -43.150  0.0000E+00  0.2400E+00
    -42.943  0.0000E+00  0.2400E+00
    -42.736  0.0000E+00  0.2400E+00
    -42.529  0.0000E+00  0.2400E+00
    -42.322  0.0000E+00  0.2400E+00
    -42.116  0.0000E+00  0.2400E+00
    -41.909  0.0000E+00  0.2400E+00
    -41.702  0.0000E+00  0.2400E+00
    -41.495  0.0000E+00  0.2400E+00
    -41.289  0.0000E+00  0.2400E+00
    -41.082  0.0000E+00  0.2400E+00
    -40.875  0.0000E+00  0.2400E+00
    -40.668  0.0000E+00  0.2400E+00
    -40.461  0.0000E+00  0.2400E+00
    -40.255  0.0000E+00  0.2400E+00
    -40.048  0.0000E+00  0.2400E+00
    -39.841  0.0000E+00  0.2400E+00
    -39.634  0.0000E+00  0.2400E+00
    -39.428  0.0000E+00  0.2400E+00
    -39.221  0.0000E+00  0.2400E+00
    -39.014  0.0000E+00  0.2400E+00
    -38.807  0.0000E+00  0.2400E+00
    -38.600  0.0000E+00  0.2400E+00
    -38.394  0.0000E+00  0.2400E+00
    -38.187  0.0000E+00  0.2400E+00
    -37.980  0.0000E+00  0.2400E+00
    -37.773  0.0000E+00  0.2400E+00
    -37.567  0.0000E+00  0.2400E+00
    -37.360  0.0000E+00  0.2400E+00
    -37.153  0.0000E+00  0.2400E+00
    -36.946  0.0000E+00  0.2400E+00
    -36.740  0.0000E+00  0.2400E+00
    -36.533  0.0000E+00  0.2400E+00
    -36.326  0.0000E+00  0.2400E+00
    -36.119  0.0000E+00  0.2400E+00
    -35.912  0.0000E+00  0.2400E+00
    -35.706  0.0000E+00  0.2400E+00
    -35.499  0.0000E+00  0.2400E+00
    -35.292  0.0000E+00  0.2400E+00
    -35.085  0.0000E+00  0.2400E+00
    -34.879  0.0000E+00  0.2400E+00
    -34.672  0.0000E+00  0.2400E+00
    -34.465  0.0000E+00  0.2400E+00
    -34.258  0.0000E+00  0.2400E+00
    -34.051  0.0000E+00  0.2400E+00
    -33.845  0.0000E+00  0.2400E+00
    -33.638  0.0000E+00  0.2400E+00
    -33.431  0.0000E+00  0.2400E+00
    -33.224  0.0000E+00  0.2400E+00
    -33.018  0.0000E+00  0.2400E+00
    -32.811  0.0000E+00  0.2400E+00
    -32.604  0.0000E+00  0.2400E+00
    -32.397  0.0000E+00  0.2400E+00
    -32.190  0.0000E+00  0.2400E+00
    -31.984  0.0000E+00  0.2400E+00
    -31.777  0.0000E+00  0.2400E+00
    -31.570  0.0000E+00  0.2400E+00
    -31.363  0.0000E+00  0.2400E+00
    -31.157  0.0000E+00  0.2400E+00
    -30.950  0.0000E+00  0.2400E+00
    -30.743  0.0000E+00  0.2400E+00
    -30.536  0.0000E+00  0.2400E+00
    -30.330  0.0000E+00  0.2400E+00
    -30.123  0.0000E+00  0.2400E+00
    -29.916  0.0000E+00  0.2400E+00
    -29.709  0.0000E+00  0.2400E+00
    -29.502  0.0000E+00  0.2400E+00
    -29.296  0.0000E+00  0.2400E+00
    -29.089  0.0000E+00  0.2400E+00
    -28.882  0.0000E+00  0.2400E+00
    -28.675  0.0000E+00  0.2400E+00
    -28.469  0.0000E+00  0.2400E+00
    -28.262  0.0000E+00  0.2400E+00
    -28.055  0.0000E+00  0.2400E+00
    -27.848  0.0000E+00  0.2400E+00
    -27.641  0.0000E+00  0.2400E+00
    -27.435  0.0000E+00  0.2400E+00
    -27.228  0.0000E+00  0.2400E+00
    -27.021  0.0000E+00  0.2400E+00
    -26.814  0.0000E+00  0.2400E+00
    -26.608  0.0000E+00  0.2400E+00
    -26.401  0.0000E+00  0.2400E+00
    -26.194 -0.3155E-36  0.2400E+00
    -25.987 -0.1231E-28  0.2400E+00
    -25.780 -0.5556E-22  0.2400E+00
    -25.574 -0.2770E-16  0.2400E+00
    -25.367 -0.1722E-11  0.2400E+00
    -25.160 -0.1205E-07  0.2400E+00
    -24.953 -0.9559E-05  0.2400E+00
    -24.747 -0.7971E-03  0.2398E+00
    -24.540 -0.3407E-02  0.2391E+00
    -24.333  0.5403E-01  0.2503E+00
    -24.126  0.1835E+00  0.2882E+00
    -23.919  0.2003E+00  0.3296E+00
    -23.713  0.4405E+00  0.4207E+00
    -23.506  0.8536E+00  0.5972E+00
    -23.299  0.1001E+01  0.8043E+00
    -23.092  0.3874E+00  0.8844E+00
    -22.886  0.2765E+00  0.9416E+00
    -22.679  0.9498E-01  0.9612E+00
    -22.472 -0.4387E-02  0.9603E+00
    -22.265 -0.1455E-02  0.9600E+00
    -22.059 -0.2541E-04  0.9600E+00
    -21.852 -0.5021E-07  0.9600E+00
    -21.645 -0.1139E-10  0.9600E+00
    -21.438 -0.3007E-15  0.9600E+00
    -21.231  0.0000E+00  0.9600E+00
    -21.025  0.0000E+00  0.9600E+00
    -20.818  0.0000E+00  0.9600E+00
    -20.611  0.0000E+00  0.9600E+00
    -20.404  0.0000E+00  0.9600E+00
    -20.198  0.0000E+00  0.9600E+00
    -19.991  0.0000E+00  0.9600E+00
    -19.784  0.0000E+00  0.9600E+00
    -19.577  0.0000E+00  0.9600E+00
    -19.370  0.0000E+00  0.9600E+00
    -19.164  0.0000E+00  0.9600E+00
    -18.957  0.0000E+00  0.9600E+00
    -18.750  0.0000E+00  0.9600E+00
    -18.543  0.0000E+00  0.9600E+00
    -18.337  0.0000E+00  0.9600E+00
    -18.130  0.0000E+00  0.9600E+00
    -17.923  0.0000E+00  0.9600E+00
    -17.716  0.0000E+00  0.9600E+00
    -17.509  0.0000E+00  0.9600E+00
    -17.303  0.0000E+00  0.9600E+00
    -17.096  0.0000E+00  0.9600E+00
    -16.889  0.0000E+00  0.9600E+00
    -16.682  0.0000E+00  0.9600E+00
    -16.476  0.0000E+00  0.9600E+00
    -16.269  0.0000E+00  0.9600E+00
    -16.062  0.0000E+00  0.9600E+00
    -15.855  0.0000E+00  0.9600E+00
    -15.649  0.0000E+00  0.9600E+00
    -15.442  0.0000E+00  0.9600E+00
    -15.235  0.0000E+00  0.9600E+00
    -15.028  0.0000E+00  0.9600E+00
    -14.821  0.0000E+00  0.9600E+00
    -14.615  0.0000E+00  0.9600E+00
    -14.408  0.0000E+00  0.9600E+00
    -14.201  0.0000E+00  0.9600E+00
    -13.994  0.0000E+00  0.9600E+00
    -13.788  0.0000E+00  0.9600E+00
    -13.581  0.0000E+00  0.9600E+00
    -13.374  0.0000E+00  0.9600E+00
    -13.167  0.0000E+00  0.9600E+00
    -12.960  0.0000E+00  0.9600E+00
    -12.754  0.0000E+00  0.9600E+00
    -12.547  0.0000E+00  0.9600E+00
    -12.340  0.0000E+00  0.9600E+00
    -12.133  0.0000E+00  0.9600E+00
    -11.927  0.0000E+00  0.9600E+00
    -11.720  0.0000E+00  0.9600E+00
    -11.513  0.0000E+00  0.9600E+00
    -11.306  0.0000E+00  0.9600E+00
    -11.099  0.0000E+00  0.9600E+00
    -10.893  0.0000E+00  0.9600E+00
    -10.686  0.0000E+00  0.9600E+00
    -10.479  0.0000E+00  0.9600E+00
    -10.272  0.0000E+00  0.9600E+00
    -10.066  0.0000E+00  0.9600E+00
     -9.859  0.0000E+00  0.9600E+00
     -9.652  0.0000E+00  0.9600E+00
     -9.445  0.0000E+00  0.9600E+00
     -9.238  0.0000E+00  0.9600E+00
     -9.032  0.0000E+00  0.9600E+00
     -8.825  0.0000E+00  0.9600E+00
     -8.618  0.0000E+00  0.9600E+00
     -8.411  0.0000E+00  0.9600E+00
     -8.205  0.0000E+00  0.9600E+00
     -7.998  0.0000E+00  0.9600E+00
     -7.791  0.0000E+00  0.9600E+00
     -7.584  0.0000E+00  0.9600E+00
     -7.378  0.0000E+00  0.9600E+00
     -7.171  0.0000E+00  0.9600E+00
     -6.964  0.0000E+00  0.9600E+00
     -6.757  0.0000E+00  0.9600E+00
     -6.550  0.0000E+00  0.9600E+00
     -6.344  0.0000E+00  0.9600E+00
     -6.137  0.0000E+00  0.9600E+00
     -5.930  0.0000E+00  0.9600E+00
     -5.723  0.0000E+00  0.9600E+00
     -5.517  0.0000E+00  0.9600E+00
     -5.310  0.0000E+00  0.9600E+00
     -5.103  0.0000E+00  0.9600E+00
     -4.896  0.0000E+00  0.9600E+00
     -4.689  0.0000E+00  0.9600E+00
     -4.483  0.0000E+00  0.9600E+00
     -4.276  0.0000E+00  0.9600E+00
     -4.069  0.0000E+00  0.9600E+00
     -3.862  0.0000E+00  0.9600E+00
     -3.656  0.0000E+00  0.9600E+00
     -3.449  0.0000E+00  0.9600E+00
     -3.242  0.0000E+00  0.9600E+00
     -3.035  0.0000E+00  0.9600E+00
     -2.828  0.0000E+00  0.9600E+00
     -2.622  0.0000E+00  0.9600E+00
     -2.415  0.0000E+00  0.9600E+00
     -2.208  0.0000E+00  0.9600E+00
     -2.001  0.0000E+00  0.9600E+00
     -1.795 -0.1164E-33  0.9600E+00
     -1.588 -0.1484E-26  0.9600E+00
     -1.381 -0.2232E-20  0.9600E+00
     -1.174 -0.3838E-15  0.9600E+00
     -0.968 -0.7978E-11  0.9600E+00
     -0.761 -0.1965E-07  0.9600E+00
     -0.554 -0.5751E-05  0.9600E+00
     -0.347 -0.1877E-03  0.9600E+00
     -0.140  0.1586E-03  0.9600E+00
      0.066  0.9832E-02  0.9620E+00
      0.273  0.2430E-01  0.9670E+00
      0.480  0.2539E-01  0.9723E+00
      0.687  0.3798E-01  0.9802E+00
      0.893  0.3627E-01  0.9877E+00
      1.100  0.4165E-01  0.9963E+00
      1.307  0.6376E-01  0.1009E+01
      1.514  0.6819E-01  0.1024E+01
      1.721  0.7883E-01  0.1040E+01
      1.927  0.8838E-01  0.1058E+01
      2.134  0.9664E-01  0.1078E+01
      2.341  0.1169E+00  0.1102E+01
      2.548  0.1758E+00  0.1139E+01
      2.754  0.3043E+00  0.1202E+01
      2.961  0.4141E+00  0.1287E+01
      3.168  0.4810E+00  0.1387E+01
      3.375  0.5304E+00  0.1496E+01
      3.582  0.5965E+00  0.1620E+01
      3.788  0.6175E+00  0.1747E+01
      3.995  0.6465E+00  0.1881E+01
      4.202  0.6172E+00  0.2009E+01
      4.409  0.5610E+00  0.2125E+01
      4.615  0.5749E+00  0.2243E+01
      4.822  0.6604E+00  0.2380E+01
      5.029  0.7526E+00  0.2536E+01
      5.236  0.8384E+00  0.2709E+01
      5.443  0.8151E+00  0.2878E+01
      5.649  0.7861E+00  0.3040E+01
      5.856  0.8071E+00  0.3207E+01
      6.063  0.8248E+00  0.3378E+01
      6.270  0.8390E+00  0.3551E+01
      6.476  0.8170E+00  0.3720E+01
      6.683  0.7502E+00  0.3875E+01
      6.890  0.6597E+00  0.4011E+01
      7.097  0.5696E+00  0.4129E+01
      7.303  0.4784E+00  0.4228E+01
      7.510  0.3980E+00  0.4310E+01
      7.717  0.3916E+00  0.4391E+01
      7.924  0.4102E+00  0.4476E+01
      8.131  0.4602E+00  0.4571E+01
      8.337  0.5033E+00  0.4675E+01
      8.544  0.4009E+00  0.4758E+01
      8.751  0.1840E+00  0.4796E+01
      8.958  0.2168E-01  0.4801E+01
      9.164 -0.3786E-02  0.4800E+01
      9.371 -0.3357E-03  0.4800E+01
      9.578 -0.3182E-05  0.4800E+01
      9.785 -0.3754E-08  0.4800E+01
      9.992 -0.5424E-12  0.4800E+01
     10.198 -0.8891E-17  0.4800E+01
     10.405  0.0000E+00  0.4800E+01
     10.612  0.0000E+00  0.4800E+01
     10.819  0.0000E+00  0.4800E+01
     11.025  0.0000E+00  0.4800E+01
     11.232  0.0000E+00  0.4800E+01
     11.439  0.0000E+00  0.4800E+01
     11.646  0.0000E+00  0.4800E+01
