   29   29   50    1
  0.1632129E+02  0.5473281E-09  0.8209921E-09  0.1128346E-08  0.5000000E-15
  1.000000000000000E-004
  CAR 
 Nb - Mo - Ta - Ti - V SQS               
    193    172    120
 
  0.0000000E+00  0.0000000E+00  0.0000000E+00  0.2915452E-02
    1      -47.566994   1.000000
    2      -47.485579   1.000000
    3      -47.363496   1.000000
    4      -47.312414   1.000000
    5      -47.221635   1.000000
    6      -47.148956   1.000000
    7      -24.389772   1.000000
    8      -24.161831   1.000000
    9      -23.911947   1.000000
   10      -23.818478   1.000000
   11      -23.714439   1.000000
   12      -23.665167   1.000000
   13      -23.581079   1.000000
   14      -23.532025   1.000000
   15      -23.526060   1.000000
   16      -23.485895   1.000000
   17      -23.415322   1.000000
   18      -23.392943   1.000000
   19      -23.356578   1.000000
   20      -23.331797   1.000000
   21      -23.316418   1.000000
   22      -23.076769   1.000000
   23      -22.958623   1.000000
   24      -22.787491   1.000000
   25       -0.101316   1.000000
   26        1.360743   1.000000
   27        1.439341   1.000000
   28        2.241260   1.000000
   29        2.376569   1.000000
   30        2.563841   1.000000
   31        2.658580   1.000000
   32        2.707072   1.000000
   33        2.746738   1.000000
   34        2.881595   1.000000
   35        2.993137   1.000000
   36        3.011746   1.000000
   37        3.076783   1.000000
   38        3.148883   1.000000
   39        3.191166   1.000000
   40        3.222261   1.000000
   41        3.384527   1.000000
   42        3.433350   1.000000
   43        3.457861   1.000000
   44        3.614948   1.000000
   45        3.706681   1.000000
   46        3.739482   1.000000
   47        3.781578   1.000000
   48        3.845147   1.000000
   49        3.924918   1.000000
   50        3.988388   1.000000
   51        3.999608   1.000000
   52        4.069403   1.000000
   53        4.128426   1.000000
   54        4.205264   1.000000
   55        4.374776   1.000000
   56        4.386883   1.000000
   57        4.514156   1.000000
   58        4.571948   1.000000
   59        4.639444   1.000000
   60        4.660816   1.000000
   61        4.763757   1.000000
   62        4.825472   1.000000
   63        4.850444   1.000000
   64        4.893385   1.000000
   65        4.976050   1.000000
   66        5.019897   1.000000
   67        5.042417   1.000000
   68        5.119048   1.000000
   69        5.198089   1.000000
   70        5.205325   1.000000
   71        5.281891   1.000000
   72        5.391834   1.000000
   73        5.409136   1.000000
   74        5.476018   1.000000
   75        5.551948   1.000000
   76        5.622632   1.000000
   77        5.706902   1.000000
   78        5.779129   1.000000
   79        5.800820   1.000000
   80        5.918172   1.000001
   81        5.958267   1.000004
   82        6.022776   1.000030
   83        6.043423   1.000055
   84        6.089074   1.000195
   85        6.165203   1.001244
   86        6.192393   1.002223
   87        6.205671   1.002905
   88        6.327265   1.019714
   89        6.357007   1.026532
   90        6.399996   1.034465
   91        6.493200   1.000435
   92        6.555215   0.888094
   93        6.630720   0.630473
   94        6.638667   0.597885
   95        6.686705   0.396235
   96        6.813476   0.021636
   97        6.850394  -0.018028
   98        6.907415  -0.035457
   99        6.975535  -0.024556
  100        7.065750  -0.007518
  101        7.117301  -0.002962
  102        7.163422  -0.001121
  103        7.252846  -0.000120
  104        7.310316  -0.000023
  105        7.422218  -0.000001
  106        7.566098  -0.000000
  107        7.754837  -0.000000
  108        7.809016  -0.000000
  109        7.983044  -0.000000
  110        8.080775  -0.000000
  111        8.188277  -0.000000
  112        8.322370  -0.000000
  113        8.416080  -0.000000
  114        8.451829  -0.000000
  115        8.596427  -0.000000
  116        8.603437  -0.000000
  117        8.635461  -0.000000
  118        8.660299  -0.000000
  119        8.727375  -0.000000
  120        8.782751  -0.000000
 
  0.1428571E+00  0.0000000E+00 -0.1561251E-16  0.5830904E-02
    1      -47.561933   1.000000
    2      -47.484427   1.000000
    3      -47.363374   1.000000
    4      -47.311997   1.000000
    5      -47.227917   1.000000
    6      -47.148936   1.000000
    7      -24.329536   1.000000
    8      -24.155841   1.000000
    9      -23.906439   1.000000
   10      -23.816210   1.000000
   11      -23.710914   1.000000
   12      -23.666608   1.000000
   13      -23.580805   1.000000
   14      -23.536088   1.000000
   15      -23.526744   1.000000
   16      -23.489991   1.000000
   17      -23.421584   1.000000
   18      -23.393012   1.000000
   19      -23.363051   1.000000
   20      -23.332064   1.000000
   21      -23.316992   1.000000
   22      -23.081457   1.000000
   23      -22.960678   1.000000
   24      -22.865342   1.000000
   25        0.064409   1.000000
   26        1.494907   1.000000
   27        1.587297   1.000000
   28        2.290937   1.000000
   29        2.509976   1.000000
   30        2.667435   1.000000
   31        2.746221   1.000000
   32        2.793800   1.000000
   33        2.823245   1.000000
   34        2.962087   1.000000
   35        3.098046   1.000000
   36        3.117139   1.000000
   37        3.191713   1.000000
   38        3.235989   1.000000
   39        3.266744   1.000000
   40        3.302560   1.000000
   41        3.451341   1.000000
   42        3.490068   1.000000
   43        3.523945   1.000000
   44        3.668926   1.000000
   45        3.753453   1.000000
   46        3.791131   1.000000
   47        3.832340   1.000000
   48        3.892584   1.000000
   49        3.993733   1.000000
   50        4.029157   1.000000
   51        4.061847   1.000000
   52        4.115013   1.000000
   53        4.192568   1.000000
   54        4.298730   1.000000
   55        4.385742   1.000000
   56        4.444078   1.000000
   57        4.520511   1.000000
   58        4.622640   1.000000
   59        4.680282   1.000000
   60        4.702260   1.000000
   61        4.791534   1.000000
   62        4.863150   1.000000
   63        4.908891   1.000000
   64        4.968198   1.000000
   65        5.034872   1.000000
   66        5.046110   1.000000
   67        5.090396   1.000000
   68        5.146592   1.000000
   69        5.234429   1.000000
   70        5.287613   1.000000
   71        5.349901   1.000000
   72        5.422433   1.000000
   73        5.444203   1.000000
   74        5.501739   1.000000
   75        5.537063   1.000000
   76        5.610152   1.000000
   77        5.717129   1.000000
   78        5.751671   1.000000
   79        5.790763   1.000000
   80        5.844641   1.000000
   81        5.892762   1.000000
   82        5.912870   1.000001
   83        6.032026   1.000039
   84        6.088944   1.000195
   85        6.136254   1.000640
   86        6.192533   1.002230
   87        6.218765   1.003742
   88        6.276862   1.010092
   89        6.339422   1.022477
   90        6.389031   1.032981
   91        6.469383   1.020844
   92        6.510233   0.978717
   93        6.522568   0.958833
   94        6.581820   0.810846
   95        6.628334   0.640134
   96        6.653560   0.535568
   97        6.770353   0.107765
   98        6.884761  -0.033269
   99        6.919003  -0.034941
  100        6.980848  -0.023326
  101        7.055434  -0.008873
  102        7.131092  -0.002245
  103        7.145042  -0.001676
  104        7.237348  -0.000183
  105        7.325389  -0.000014
  106        7.406892  -0.000001
  107        7.509896  -0.000000
  108        7.667132  -0.000000
  109        7.786472  -0.000000
  110        7.941539  -0.000000
  111        8.069481  -0.000000
  112        8.160073  -0.000000
  113        8.259042  -0.000000
  114        8.290469  -0.000000
  115        8.328056  -0.000000
  116        8.422873  -0.000000
  117        8.465407  -0.000000
  118        8.502061  -0.000000
  119        8.565163  -0.000000
  120        8.657589  -0.000000
 
  0.2857143E+00  0.1387779E-16  0.3469447E-17  0.5830904E-02
    1      -47.550309   1.000000
    2      -47.481095   1.000000
    3      -47.363221   1.000000
    4      -47.311069   1.000000
    5      -47.242893   1.000000
    6      -47.148895   1.000000
    7      -24.215977   1.000000
    8      -24.090363   1.000000
    9      -23.886128   1.000000
   10      -23.811248   1.000000
   11      -23.705422   1.000000
   12      -23.665863   1.000000
   13      -23.580354   1.000000
   14      -23.546103   1.000000
   15      -23.527688   1.000000
   16      -23.498931   1.000000
   17      -23.436734   1.000000
   18      -23.393910   1.000000
   19      -23.376791   1.000000
   20      -23.335031   1.000000
   21      -23.319525   1.000000
   22      -23.098447   1.000000
   23      -23.079189   1.000000
   24      -22.954543   1.000000
   25        0.532593   1.000000
   26        1.834295   1.000000
   27        1.986894   1.000000
   28        2.435152   1.000000
   29        2.702799   1.000000
   30        2.863609   1.000000
   31        2.954755   1.000000
   32        3.026110   1.000000
   33        3.076016   1.000000
   34        3.120141   1.000000
   35        3.216565   1.000000
   36        3.304125   1.000000
   37        3.381143   1.000000
   38        3.436400   1.000000
   39        3.467503   1.000000
   40        3.510169   1.000000
   41        3.597500   1.000000
   42        3.637988   1.000000
   43        3.741623   1.000000
   44        3.786578   1.000000
   45        3.841911   1.000000
   46        3.923337   1.000000
   47        3.972063   1.000000
   48        4.014830   1.000000
   49        4.073991   1.000000
   50        4.174567   1.000000
   51        4.234178   1.000000
   52        4.297733   1.000000
   53        4.444952   1.000000
   54        4.467184   1.000000
   55        4.517340   1.000000
   56        4.581655   1.000000
   57        4.595114   1.000000
   58        4.684343   1.000000
   59        4.747995   1.000000
   60        4.811464   1.000000
   61        4.837276   1.000000
   62        4.945592   1.000000
   63        5.015184   1.000000
   64        5.063928   1.000000
   65        5.091243   1.000000
   66        5.166499   1.000000
   67        5.207932   1.000000
   68        5.246106   1.000000
   69        5.286752   1.000000
   70        5.315979   1.000000
   71        5.396214   1.000000
   72        5.454157   1.000000
   73        5.475463   1.000000
   74        5.549913   1.000000
   75        5.570539   1.000000
   76        5.633590   1.000000
   77        5.658461   1.000000
   78        5.677611   1.000000
   79        5.781038   1.000000
   80        5.821219   1.000000
   81        5.853314   1.000000
   82        5.915348   1.000001
   83        5.940971   1.000002
   84        6.022197   1.000029
   85        6.029371   1.000036
   86        6.120339   1.000435
   87        6.150152   1.000886
   88        6.229884   1.004602
   89        6.259919   1.007732
   90        6.302262   1.014487
   91        6.346521   1.024118
   92        6.433014   1.034362
   93        6.487997   1.005829
   94        6.528850   0.947293
   95        6.595491   0.764823
   96        6.625889   0.649968
   97        6.655209   0.528607
   98        6.712664   0.292964
   99        6.796400   0.050237
  100        6.869743  -0.028703
  101        6.899325  -0.035224
  102        6.945633  -0.031084
  103        7.009228  -0.016996
  104        7.067975  -0.007247
  105        7.119090  -0.002859
  106        7.213902  -0.000336
  107        7.313713  -0.000020
  108        7.397903  -0.000001
  109        7.416895  -0.000001
  110        7.523464  -0.000000
  111        7.631616  -0.000000
  112        7.787024  -0.000000
  113        7.848348  -0.000000
  114        7.906833  -0.000000
  115        8.012096  -0.000000
  116        8.084768  -0.000000
  117        8.156644  -0.000000
  118        8.198795  -0.000000
  119        8.289751  -0.000000
  120        8.373576  -0.000000
 
  0.4285714E+00  0.5551115E-16 -0.4163336E-16  0.5830904E-02
    1      -47.540889   1.000000
    2      -47.477254   1.000000
    3      -47.363296   1.000000
    4      -47.310350   1.000000
    5      -47.255944   1.000000
    6      -47.148864   1.000000
    7      -24.191697   1.000000
    8      -23.953127   1.000000
    9      -23.809018   1.000000
   10      -23.776979   1.000000
   11      -23.703880   1.000000
   12      -23.660776   1.000000
   13      -23.580893   1.000000
   14      -23.555058   1.000000
   15      -23.528279   1.000000
   16      -23.505894   1.000000
   17      -23.456037   1.000000
   18      -23.404351   1.000000
   19      -23.393787   1.000000
   20      -23.382444   1.000000
   21      -23.334785   1.000000
   22      -23.283854   1.000000
   23      -23.099755   1.000000
   24      -22.956669   1.000000
   25        1.201512   1.000000
   26        1.925824   1.000000
   27        2.476498   1.000000
   28        2.557382   1.000000
   29        2.696296   1.000000
   30        2.921578   1.000000
   31        3.035512   1.000000
   32        3.124987   1.000000
   33        3.268496   1.000000
   34        3.322166   1.000000
   35        3.393949   1.000000
   36        3.450660   1.000000
   37        3.507523   1.000000
   38        3.532354   1.000000
   39        3.640651   1.000000
   40        3.727769   1.000000
   41        3.755118   1.000000
   42        3.807036   1.000000
   43        3.855967   1.000000
   44        3.945854   1.000000
   45        3.985277   1.000000
   46        4.082000   1.000000
   47        4.129378   1.000000
   48        4.211380   1.000000
   49        4.244146   1.000000
   50        4.265389   1.000000
   51        4.364300   1.000000
   52        4.433034   1.000000
   53        4.501941   1.000000
   54        4.582568   1.000000
   55        4.674536   1.000000
   56        4.710445   1.000000
   57        4.737155   1.000000
   58        4.778859   1.000000
   59        4.835813   1.000000
   60        4.884926   1.000000
   61        4.928403   1.000000
   62        4.964358   1.000000
   63        5.037438   1.000000
   64        5.051429   1.000000
   65        5.113683   1.000000
   66        5.147013   1.000000
   67        5.206876   1.000000
   68        5.234055   1.000000
   69        5.322118   1.000000
   70        5.328661   1.000000
   71        5.400704   1.000000
   72        5.439528   1.000000
   73        5.462647   1.000000
   74        5.502601   1.000000
   75        5.539714   1.000000
   76        5.641445   1.000000
   77        5.678644   1.000000
   78        5.757073   1.000000
   79        5.789818   1.000000
   80        5.823957   1.000000
   81        5.899631   1.000000
   82        5.929734   1.000001
   83        5.968479   1.000005
   84        6.044680   1.000057
   85        6.096347   1.000236
   86        6.120862   1.000440
   87        6.172205   1.001451
   88        6.199652   1.002577
   89        6.225975   1.004283
   90        6.260214   1.007770
   91        6.316953   1.017467
   92        6.362856   1.027848
   93        6.390492   1.033209
   94        6.420092   1.035421
   95        6.475335   1.016733
   96        6.533184   0.938762
   97        6.626012   0.649476
   98        6.668141   0.473919
   99        6.713856   0.288447
  100        6.777261   0.090842
  101        6.826470   0.004423
  102        6.866803  -0.027455
  103        6.941772  -0.031809
  104        6.979110  -0.023728
  105        7.040566  -0.011123
  106        7.140844  -0.001832
  107        7.158412  -0.001253
  108        7.270500  -0.000073
  109        7.332849  -0.000011
  110        7.433891  -0.000000
  111        7.487346  -0.000000
  112        7.564489  -0.000000
  113        7.649649  -0.000000
  114        7.735755  -0.000000
  115        7.824843  -0.000000
  116        7.857035  -0.000000
  117        7.945631  -0.000000
  118        8.018474  -0.000000
  119        8.118606  -0.000000
  120        8.186278  -0.000000
 
 -0.6938894E-17  0.1428571E+00  0.1040834E-16  0.5830904E-02
    1      -47.566991   1.000000
    2      -47.485576   1.000000
    3      -47.363439   1.000000
    4      -47.312309   1.000000
    5      -47.221633   1.000000
    6      -47.149129   1.000000
    7      -24.389776   1.000000
    8      -24.161655   1.000000
    9      -23.911808   1.000000
   10      -23.814935   1.000000
   11      -23.714493   1.000000
   12      -23.665083   1.000000
   13      -23.581048   1.000000
   14      -23.532074   1.000000
   15      -23.526081   1.000000
   16      -23.485941   1.000000
   17      -23.415359   1.000000
   18      -23.392920   1.000000
   19      -23.356543   1.000000
   20      -23.331782   1.000000
   21      -23.316333   1.000000
   22      -23.080985   1.000000
   23      -22.959083   1.000000
   24      -22.787497   1.000000
   25       -0.029097   1.000000
   26        1.389318   1.000000
   27        1.525026   1.000000
   28        2.015194   1.000000
   29        2.439518   1.000000
   30        2.525869   1.000000
   31        2.645681   1.000000
   32        2.696969   1.000000
   33        2.718979   1.000000
   34        2.819648   1.000000
   35        2.950224   1.000000
   36        3.022281   1.000000
   37        3.068516   1.000000
   38        3.115242   1.000000
   39        3.171149   1.000000
   40        3.288592   1.000000
   41        3.386844   1.000000
   42        3.460389   1.000000
   43        3.514001   1.000000
   44        3.603851   1.000000
   45        3.677789   1.000000
   46        3.748031   1.000000
   47        3.791679   1.000000
   48        3.864071   1.000000
   49        3.930329   1.000000
   50        3.959856   1.000000
   51        4.049865   1.000000
   52        4.139402   1.000000
   53        4.162528   1.000000
   54        4.278833   1.000000
   55        4.335515   1.000000
   56        4.421494   1.000000
   57        4.495181   1.000000
   58        4.614054   1.000000
   59        4.678236   1.000000
   60        4.718112   1.000000
   61        4.763483   1.000000
   62        4.807038   1.000000
   63        4.877896   1.000000
   64        4.945051   1.000000
   65        4.988672   1.000000
   66        5.023594   1.000000
   67        5.080420   1.000000
   68        5.135763   1.000000
   69        5.167279   1.000000
   70        5.255174   1.000000
   71        5.293215   1.000000
   72        5.354541   1.000000
   73        5.417368   1.000000
   74        5.470000   1.000000
   75        5.508509   1.000000
   76        5.642504   1.000000
   77        5.708345   1.000000
   78        5.761785   1.000000
   79        5.802925   1.000000
   80        5.905217   1.000001
   81        5.956436   1.000004
   82        5.991600   1.000011
   83        6.038587   1.000048
   84        6.089919   1.000200
   85        6.142489   1.000741
   86        6.173442   1.001490
   87        6.247316   1.006264
   88        6.291581   1.012515
   89        6.356840   1.026494
   90        6.388402   1.032880
   91        6.416677   1.035457
   92        6.488021   1.005806
   93        6.514604   0.972083
   94        6.625540   0.651365
   95        6.656688   0.522361
   96        6.718451   0.271264
   97        6.848829  -0.016893
   98        6.937510  -0.032557
   99        6.998191  -0.019379
  100        7.031470  -0.012674
  101        7.134673  -0.002085
  102        7.230020  -0.000222
  103        7.303997  -0.000027
  104        7.432996  -0.000000
  105        7.499613  -0.000000
  106        7.575647  -0.000000
  107        7.657588  -0.000000
  108        7.787542  -0.000000
  109        7.869378  -0.000000
  110        8.014500  -0.000000
  111        8.164821  -0.000000
  112        8.263846  -0.000000
  113        8.343997  -0.000000
  114        8.386610  -0.000000
  115        8.440963  -0.000000
  116        8.552596  -0.000000
  117        8.589484  -0.000000
  118        8.630590  -0.000000
  119        8.704418  -0.000000
  120        8.742353  -0.000000
 
  0.1428571E+00  0.1428571E+00 -0.1387779E-16  0.5830904E-02
    1      -47.561935   1.000000
    2      -47.484430   1.000000
    3      -47.363428   1.000000
    4      -47.312099   1.000000
    5      -47.227920   1.000000
    6      -47.148770   1.000000
    7      -24.329532   1.000000
    8      -24.156009   1.000000
    9      -23.906579   1.000000
   10      -23.819630   1.000000
   11      -23.710898   1.000000
   12      -23.666690   1.000000
   13      -23.580819   1.000000
   14      -23.536150   1.000000
   15      -23.526725   1.000000
   16      -23.489992   1.000000
   17      -23.421546   1.000000
   18      -23.393040   1.000000
   19      -23.363069   1.000000
   20      -23.332054   1.000000
   21      -23.316968   1.000000
   22      -23.077379   1.000000
   23      -22.960256   1.000000
   24      -22.865336   1.000000
   25        0.065406   1.000000
   26        1.448852   1.000000
   27        1.627149   1.000000
   28        2.281782   1.000000
   29        2.503536   1.000000
   30        2.652954   1.000000
   31        2.746650   1.000000
   32        2.776354   1.000000
   33        2.840370   1.000000
   34        2.888077   1.000000
   35        3.008672   1.000000
   36        3.094202   1.000000
   37        3.160436   1.000000
   38        3.198159   1.000000
   39        3.271239   1.000000
   40        3.296563   1.000000
   41        3.423455   1.000000
   42        3.521793   1.000000
   43        3.575144   1.000000
   44        3.659052   1.000000
   45        3.745383   1.000000
   46        3.806900   1.000000
   47        3.868284   1.000000
   48        3.937643   1.000000
   49        3.952892   1.000000
   50        4.042236   1.000000
   51        4.096874   1.000000
   52        4.137637   1.000000
   53        4.208928   1.000000
   54        4.300393   1.000000
   55        4.409381   1.000000
   56        4.477920   1.000000
   57        4.551495   1.000000
   58        4.639741   1.000000
   59        4.674606   1.000000
   60        4.723574   1.000000
   61        4.793866   1.000000
   62        4.837478   1.000000
   63        4.908566   1.000000
   64        4.941145   1.000000
   65        4.973713   1.000000
   66        5.030672   1.000000
   67        5.081931   1.000000
   68        5.158590   1.000000
   69        5.198453   1.000000
   70        5.253301   1.000000
   71        5.301544   1.000000
   72        5.384852   1.000000
   73        5.415214   1.000000
   74        5.491245   1.000000
   75        5.565805   1.000000
   76        5.594417   1.000000
   77        5.701329   1.000000
   78        5.719347   1.000000
   79        5.768158   1.000000
   80        5.822759   1.000000
   81        5.874357   1.000000
   82        5.970106   1.000006
   83        6.036954   1.000046
   84        6.080159   1.000154
   85        6.125215   1.000490
   86        6.164257   1.001218
   87        6.206199   1.002936
   88        6.285890   1.011537
   89        6.321245   1.018389
   90        6.392113   1.033451
   91        6.480077   1.013006
   92        6.521160   0.961288
   93        6.548610   0.904570
   94        6.602895   0.738303
   95        6.673499   0.451325
   96        6.746514   0.175260
   97        6.782678   0.078412
   98        6.869991  -0.028802
   99        6.897702  -0.035109
  100        6.983149  -0.022794
  101        7.052211  -0.009330
  102        7.133627  -0.002130
  103        7.177495  -0.000813
  104        7.285346  -0.000048
  105        7.352854  -0.000006
  106        7.428093  -0.000000
  107        7.588856  -0.000000
  108        7.643940  -0.000000
  109        7.843242  -0.000000
  110        7.872775  -0.000000
  111        8.099218  -0.000000
  112        8.154934  -0.000000
  113        8.237890  -0.000000
  114        8.291588  -0.000000
  115        8.424795  -0.000000
  116        8.543908  -0.000000
  117        8.599016  -0.000000
  118        8.667912  -0.000000
  119        8.713754  -0.000000
  120        8.741514  -0.000000
 
  0.2857143E+00  0.1428571E+00  0.2775558E-16  0.5830904E-02
    1      -47.550312   1.000000
    2      -47.481102   1.000000
    3      -47.363342   1.000000
    4      -47.311307   1.000000
    5      -47.242898   1.000000
    6      -47.148516   1.000000
    7      -24.216157   1.000000
    8      -24.090603   1.000000
    9      -23.886343   1.000000
   10      -23.819095   1.000000
   11      -23.705506   1.000000
   12      -23.666006   1.000000
   13      -23.580436   1.000000
   14      -23.546137   1.000000
   15      -23.527682   1.000000
   16      -23.498899   1.000000
   17      -23.436631   1.000000
   18      -23.393943   1.000000
   19      -23.376854   1.000000
   20      -23.335065   1.000000
   21      -23.319513   1.000000
   22      -23.093798   1.000000
   23      -23.074193   1.000000
   24      -22.953784   1.000000
   25        0.469048   1.000000
   26        1.731833   1.000000
   27        1.965057   1.000000
   28        2.529396   1.000000
   29        2.661123   1.000000
   30        2.855763   1.000000
   31        2.916187   1.000000
   32        3.009879   1.000000
   33        3.081651   1.000000
   34        3.141656   1.000000
   35        3.213133   1.000000
   36        3.265032   1.000000
   37        3.347534   1.000000
   38        3.420574   1.000000
   39        3.462946   1.000000
   40        3.545257   1.000000
   41        3.581198   1.000000
   42        3.631938   1.000000
   43        3.715357   1.000000
   44        3.777929   1.000000
   45        3.878970   1.000000
   46        3.938171   1.000000
   47        4.013518   1.000000
   48        4.058772   1.000000
   49        4.111203   1.000000
   50        4.166603   1.000000
   51        4.216500   1.000000
   52        4.298327   1.000000
   53        4.330520   1.000000
   54        4.396650   1.000000
   55        4.513887   1.000000
   56        4.542143   1.000000
   57        4.648991   1.000000
   58        4.719905   1.000000
   59        4.777852   1.000000
   60        4.812392   1.000000
   61        4.852264   1.000000
   62        4.932010   1.000000
   63        4.995577   1.000000
   64        5.024089   1.000000
   65        5.077542   1.000000
   66        5.142953   1.000000
   67        5.168197   1.000000
   68        5.216836   1.000000
   69        5.266695   1.000000
   70        5.325932   1.000000
   71        5.347965   1.000000
   72        5.410627   1.000000
   73        5.459133   1.000000
   74        5.499366   1.000000
   75        5.553023   1.000000
   76        5.613824   1.000000
   77        5.637593   1.000000
   78        5.703980   1.000000
   79        5.790651   1.000000
   80        5.822440   1.000000
   81        5.865091   1.000000
   82        5.919252   1.000001
   83        5.984407   1.000009
   84        6.033518   1.000041
   85        6.078824   1.000148
   86        6.134402   1.000612
   87        6.170922   1.001411
   88        6.192371   1.002222
   89        6.258870   1.007601
   90        6.327310   1.019724
   91        6.353476   1.025724
   92        6.379351   1.031283
   93        6.420278   1.035416
   94        6.454717   1.028495
   95        6.530669   0.943769
   96        6.567992   0.853127
   97        6.638805   0.597312
   98        6.691398   0.376980
   99        6.787820   0.067302
  100        6.894019  -0.034758
  101        6.934755  -0.033006
  102        7.019602  -0.014892
  103        7.052020  -0.009358
  104        7.108003  -0.003547
  105        7.159108  -0.001234
  106        7.243507  -0.000155
  107        7.309758  -0.000023
  108        7.439222  -0.000000
  109        7.507649  -0.000000
  110        7.613228  -0.000000
  111        7.867390  -0.000000
  112        7.885147  -0.000000
  113        7.966639  -0.000000
  114        8.059388  -0.000000
  115        8.161933  -0.000000
  116        8.225615  -0.000000
  117        8.307945  -0.000000
  118        8.359538  -0.000000
  119        8.415404  -0.000000
  120        8.496522  -0.000000
 
  0.4285714E+00  0.1428571E+00 -0.2081668E-16  0.5830904E-02
    1      -47.540892   1.000000
    2      -47.477259   1.000000
    3      -47.363390   1.000000
    4      -47.310545   1.000000
    5      -47.255948   1.000000
    6      -47.148560   1.000000
    7      -24.191941   1.000000
    8      -23.953355   1.000000
    9      -23.815039   1.000000
   10      -23.777342   1.000000
   11      -23.704078   1.000000
   12      -23.660835   1.000000
   13      -23.580995   1.000000
   14      -23.555089   1.000000
   15      -23.528286   1.000000
   16      -23.505866   1.000000
   17      -23.455951   1.000000
   18      -23.404336   1.000000
   19      -23.393758   1.000000
   20      -23.382563   1.000000
   21      -23.334801   1.000000
   22      -23.283826   1.000000
   23      -23.091843   1.000000
   24      -22.956096   1.000000
   25        1.106579   1.000000
   26        1.941162   1.000000
   27        2.384616   1.000000
   28        2.518310   1.000000
   29        2.653793   1.000000
   30        2.838946   1.000000
   31        3.083940   1.000000
   32        3.216207   1.000000
   33        3.258656   1.000000
   34        3.350472   1.000000
   35        3.418240   1.000000
   36        3.472748   1.000000
   37        3.518334   1.000000
   38        3.566537   1.000000
   39        3.658324   1.000000
   40        3.701304   1.000000
   41        3.782234   1.000000
   42        3.795626   1.000000
   43        3.853326   1.000000
   44        3.923639   1.000000
   45        4.035858   1.000000
   46        4.096206   1.000000
   47        4.137908   1.000000