       N       E                     dE             d eps       ncg     rms          rms(c)
DAV:   1    -0.406884227516E+04   -0.40688E+04   -0.15958E+05 61488   0.196E+03
DAV:   2    -0.944436648711E+04   -0.53755E+04   -0.51732E+04 75432   0.120E+03
DAV:   3    -0.102963882476E+05   -0.85202E+03   -0.82773E+03 82548   0.511E+02
DAV:   4    -0.105442534112E+05   -0.24787E+03   -0.22249E+03 82560   0.232E+02
DAV:   5    -0.107139600057E+05   -0.16971E+03   -0.15228E+03 82560   0.174E+02    0.566E+03
DAV:   6    -0.113321904367E+04    0.95807E+04   -0.25506E+04 65868   0.619E+02    0.269E+03
DAV:   7    -0.100270260686E+04    0.13052E+03   -0.16633E+04 70824   0.527E+02    0.201E+03
DAV:   8    -0.694506816078E+03    0.30820E+03   -0.50870E+03 72972   0.348E+02    0.180E+03
DAV:   9    -0.584826135016E+03    0.10968E+03   -0.90644E+02 75612   0.873E+01    0.171E+03
DAV:  10    -0.571999085877E+03    0.12827E+02   -0.16046E+02 72240   0.459E+01    0.169E+03
DAV:  11    -0.536193974716E+03    0.35805E+02   -0.21742E+02 71328   0.483E+01    0.163E+03
DAV:  12    -0.573141884166E+03   -0.36948E+02   -0.30568E+03 74856   0.336E+02    0.123E+03
DAV:  13    -0.493508515019E+03    0.79633E+02   -0.26321E+03 67680   0.184E+02    0.816E+02
DAV:  14    -0.399142649198E+03    0.94366E+02   -0.24253E+03 75984   0.288E+02    0.555E+02
DAV:  15    -0.439901118900E+03   -0.40758E+02   -0.13202E+03 73500   0.117E+02    0.237E+02
DAV:  16    -0.370815248933E+03    0.69086E+02   -0.73509E+02 78072   0.935E+01    0.208E+02
DAV:  17    -0.393096630690E+03   -0.22281E+02   -0.38454E+02 76200   0.108E+02    0.211E+02
DAV:  18    -0.384054430668E+03    0.90422E+01   -0.25791E+02 74244   0.799E+01    0.174E+02
DAV:  19    -0.375433805550E+03    0.86206E+01   -0.26678E+02 78084   0.615E+01    0.134E+02
DAV:  20    -0.363589519952E+03    0.11844E+02   -0.18810E+02 73512   0.645E+01    0.109E+02
DAV:  21    -0.346787281434E+03    0.16802E+02   -0.11989E+02 70992   0.633E+01    0.972E+01
DAV:  22    -0.330481104540E+03    0.16306E+02   -0.45994E+01 72048   0.389E+01    0.836E+01
DAV:  23    -0.317187657789E+03    0.13293E+02   -0.37961E+01 70920   0.329E+01    0.623E+01
DAV:  24    -0.314394998576E+03    0.27927E+01   -0.67541E+00 79572   0.923E+00    0.583E+01
DAV:  25    -0.317049313974E+03   -0.26543E+01   -0.72278E+00 75228   0.926E+00    0.594E+01
DAV:  26    -0.313631174540E+03    0.34181E+01   -0.95549E+00 72936   0.145E+01    0.545E+01
DAV:  27    -0.311084788298E+03    0.25464E+01   -0.71001E+00 72192   0.120E+01    0.489E+01
DAV:  28    -0.306440136252E+03    0.46447E+01   -0.14075E+01 73824   0.148E+01    0.363E+01
DAV:  29    -0.304422746477E+03    0.20174E+01   -0.16068E+01 74664   0.128E+01    0.271E+01
DAV:  30    -0.303968198890E+03    0.45455E+00   -0.28072E+00 69372   0.629E+00    0.254E+01
DAV:  31    -0.303852399784E+03    0.11580E+00   -0.10800E+00 74328   0.398E+00    0.256E+01
DAV:  32    -0.303615570967E+03    0.23683E+00   -0.73518E-01 72288   0.346E+00    0.237E+01
DAV:  33    -0.303516078238E+03    0.99493E-01   -0.12969E+00 69780   0.443E+00    0.198E+01
DAV:  34    -0.303049751875E+03    0.46633E+00   -0.11571E+00 66372   0.477E+00    0.143E+01
DAV:  35    -0.303067070434E+03   -0.17319E-01   -0.42841E-01 72492   0.236E+00    0.129E+01
DAV:  36    -0.302919687290E+03    0.14738E+00   -0.38306E-01 72192   0.279E+00    0.986E+00
DAV:  37    -0.302888929606E+03    0.30758E-01   -0.43878E-01 75636   0.244E+00    0.698E+00
DAV:  38    -0.302873367437E+03    0.15562E-01   -0.16650E-01 70620   0.139E+00    0.501E+00
DAV:  39    -0.302864209562E+03    0.91579E-02   -0.44291E-01 74148   0.230E+00    0.357E+00
DAV:  40    -0.302847679548E+03    0.16530E-01   -0.81541E-02 72360   0.137E+00    0.281E+00
DAV:  41    -0.302848704441E+03   -0.10249E-02   -0.55177E-02 72072   0.702E-01    0.216E+00
DAV:  42    -0.302842211537E+03    0.64929E-02   -0.20290E-02 73332   0.575E-01    0.166E+00
DAV:  43    -0.302840566131E+03    0.16454E-02   -0.40177E-03 74328   0.217E-01    0.137E+00
DAV:  44    -0.302838879163E+03    0.16870E-02   -0.16556E-03 60924   0.177E-01    0.109E+00
DAV:  45    -0.302836560094E+03    0.23191E-02   -0.32160E-03 64140   0.253E-01    0.716E-01
DAV:  46    -0.302835711308E+03    0.84879E-03   -0.19057E-03 63756   0.166E-01    0.397E-01
DAV:  47    -0.302835620215E+03    0.91094E-04   -0.63961E-04 47724   0.115E-01
   1 F= -.30283562E+03 E0= -.30282725E+03  d E =-.302836E+03
       N       E                     dE             d eps       ncg     rms          rms(c)
DAV:   1    -0.304100607578E+03   -0.12649E+01   -0.10738E+02 48060   0.440E+01    0.109E+01
DAV:   2    -0.305298877854E+03   -0.11983E+01   -0.23533E+01 74856   0.242E+01    0.101E+01
DAV:   3    -0.304173260558E+03    0.11256E+01   -0.16193E+01 74136   0.167E+01    0.790E+00
DAV:   4    -0.303896738351E+03    0.27652E+00   -0.92296E+00 72240   0.137E+01    0.698E+00
DAV:   5    -0.303531271734E+03    0.36547E+00   -0.56985E+00 70164   0.107E+01    0.516E+00
DAV:   6    -0.303340069697E+03    0.19120E+00   -0.27182E+00 68604   0.786E+00    0.321E+00
DAV:   7    -0.303311473712E+03    0.28596E-01   -0.13528E+00 74736   0.506E+00    0.273E+00
DAV:   8    -0.303269010404E+03    0.42463E-01   -0.62279E-01 70020   0.356E+00    0.169E+00
DAV:   9    -0.303257199932E+03    0.11810E-01   -0.24796E-01 72600   0.224E+00    0.135E+00
DAV:  10    -0.303250776882E+03    0.64230E-02   -0.10995E-01 69312   0.146E+00    0.974E-01
DAV:  11    -0.303251667135E+03   -0.89025E-03   -0.41838E-02 68544   0.937E-01    0.838E-01
DAV:  12    -0.303253739210E+03   -0.20721E-02   -0.32385E-02 72156   0.779E-01    0.592E-01
DAV:  13    -0.303260210320E+03   -0.64711E-02   -0.49462E-02 70620   0.104E+00    0.697E-01
DAV:  14    -0.303256159240E+03    0.40511E-02   -0.39456E-02 71892   0.926E-01    0.246E-01
DAV:  15    -0.303255606651E+03    0.55259E-03   -0.97575E-03 71712   0.386E-01    0.114E-01
DAV:  16    -0.303255550752E+03    0.55899E-04   -0.36251E-03 62952   0.208E-01    0.103E-01
DAV:  17    -0.303255449783E+03    0.10097E-03   -0.93368E-04 54324   0.123E-01    0.750E-02
DAV:  18    -0.303255441012E+03    0.87712E-05   -0.17312E-04 27000   0.851E-02
   2 F= -.30325544E+03 E0= -.30324768E+03  d E =-.419821E+00
       N       E                     dE             d eps       ncg     rms          rms(c)
DAV:   1    -0.303260405583E+03   -0.49558E-02   -0.34914E-01 52620   0.253E+00    0.610E-01
DAV:   2    -0.303264533195E+03   -0.41276E-02   -0.80046E-02 75828   0.134E+00    0.646E-01
DAV:   3    -0.303260500654E+03    0.40325E-02   -0.63989E-02 75108   0.105E+00    0.474E-01
DAV:   4    -0.303259634938E+03    0.86572E-03   -0.32986E-02 65952   0.731E-01    0.436E-01
DAV:   5    -0.303258606479E+03    0.10285E-02   -0.22761E-02 66432   0.667E-01    0.349E-01
DAV:   6    -0.303257546814E+03    0.10597E-02   -0.10530E-02 68616   0.480E-01    0.180E-01
DAV:   7    -0.303257453452E+03    0.93362E-04   -0.49486E-03 62244   0.314E-01    0.164E-01
DAV:   8    -0.303257287586E+03    0.16587E-03   -0.24626E-03 60168   0.229E-01    0.946E-02
DAV:   9    -0.303257243096E+03    0.44490E-04   -0.84603E-04 48432   0.145E-01
   3 F= -.30325724E+03 E0= -.30324943E+03  d E =-.421623E+00
       N       E                     dE             d eps       ncg     rms          rms(c)
DAV:   1    -0.303421936555E+03   -0.16465E+00   -0.40608E+01 41316   0.221E+01    0.293E+00
DAV:   2    -0.303975055558E+03   -0.55312E+00   -0.55200E+00 71172   0.114E+01    0.518E+00
DAV:   3    -0.303664338526E+03    0.31072E+00   -0.28475E+00 72804   0.757E+00    0.230E+00
DAV:   4    -0.303647379294E+03    0.16959E-01   -0.55551E-01 70176   0.357E+00    0.207E+00
DAV:   5    -0.303617059397E+03    0.30320E-01   -0.39118E-01 67740   0.310E+00    0.134E+00
DAV:   6    -0.303605211820E+03    0.11848E-01   -0.16197E-01 69528   0.188E+00    0.999E-01
DAV:   7    -0.303607569223E+03   -0.23574E-02   -0.15228E-01 71628   0.181E+00    0.110E+00
DAV:   8    -0.303600255412E+03    0.73138E-02   -0.91805E-02 70476   0.143E+00    0.653E-01
DAV:   9    -0.303596894709E+03    0.33607E-02   -0.37010E-02 72636   0.841E-01    0.403E-01
DAV:  10    -0.303595885148E+03    0.10096E-02   -0.11283E-02 60516   0.490E-01    0.256E-01
DAV:  11    -0.303595588979E+03    0.29617E-03   -0.39727E-03 64980   0.267E-01    0.171E-01
DAV:  12    -0.303595703073E+03   -0.11409E-03   -0.21626E-03 61152   0.219E-01    0.165E-01
DAV:  13    -0.303595669929E+03    0.33144E-04   -0.21027E-03 59760   0.225E-01    0.117E-01
DAV:  14    -0.303595683509E+03   -0.13580E-04   -0.18323E-03 59976   0.168E-01    0.797E-02
DAV:  15    -0.303595583608E+03    0.99901E-04   -0.83670E-04 51012   0.123E-01
   4 F= -.30359558E+03 E0= -.30358918E+03  d E =-.338341E+00
       N       E                     dE             d eps       ncg     rms          rms(c)
DAV:   1    -0.303434047323E+03    0.16164E+00   -0.87236E+01 41352   0.325E+01    0.420E+00
DAV:   2    -0.304604207061E+03   -0.11702E+01   -0.11694E+01 71196   0.167E+01    0.740E+00
DAV:   3    -0.303943745929E+03    0.66046E+00   -0.57814E+00 73260   0.108E+01    0.325E+00
DAV:   4    -0.303923789388E+03    0.19957E-01   -0.12463E+00 68796   0.539E+00    0.310E+00
DAV:   5    -0.303848295040E+03    0.75494E-01   -0.80769E-01 68520   0.449E+00    0.176E+00
DAV:   6    -0.303825621364E+03    0.22674E-01   -0.27515E-01 70140   0.252E+00    0.130E+00
DAV:   7    -0.303834999457E+03   -0.93781E-02   -0.30838E-01 70512   0.258E+00    0.159E+00
DAV:   8    -0.303816885563E+03    0.18114E-01   -0.18737E-01 70968   0.211E+00    0.837E-01
DAV:   9    -0.303810752803E+03    0.61328E-02   -0.66424E-02 73296   0.111E+00    0.521E-01
DAV:  10    -0.303809522428E+03    0.12304E-02   -0.21475E-02 64776   0.684E-01    0.394E-01
DAV:  11    -0.303808732855E+03    0.78957E-03   -0.91939E-03 65412   0.414E-01    0.232E-01
DAV:  12    -0.303808975180E+03   -0.24232E-03   -0.46156E-03 61848   0.313E-01    0.226E-01
DAV:  13    -0.303808880875E+03    0.94305E-04   -0.46277E-03 60408   0.341E-01    0.169E-01
DAV:  14    -0.303808890666E+03   -0.97915E-05   -0.34943E-03 64068   0.250E-01    0.111E-01
DAV:  15    -0.303808702021E+03    0.18865E-03   -0.16494E-03 59868   0.164E-01    0.496E-02
DAV:  16    -0.303808684341E+03    0.17680E-04   -0.40479E-04 39432   0.121E-01
   5 F= -.30380868E+03 E0= -.30380486E+03  d E =-.551441E+00
       N       E                     dE             d eps       ncg     rms          rms(c)
DAV:   1    -0.303806570332E+03    0.21317E-02   -0.13403E+00 42432   0.395E+00    0.489E-01
DAV:   2    -0.303823589489E+03   -0.17019E-01   -0.16602E-01 70776   0.194E+00    0.931E-01
DAV:   3    -0.303813558578E+03    0.10031E-01   -0.86279E-02 72036   0.136E+00    0.389E-01
DAV:   4    -0.303813393333E+03    0.16525E-03   -0.17892E-02 66816   0.644E-01    0.389E-01
DAV:   5    -0.303812085428E+03    0.13079E-02   -0.11980E-02 61560   0.543E-01    0.200E-01
DAV:   6    -0.303811858844E+03    0.22658E-03   -0.41273E-03 64572   0.310E-01    0.171E-01
DAV:   7    -0.303811862800E+03   -0.39557E-05   -0.44771E-03 59112   0.319E-01    0.171E-01
DAV:   8    -0.303811648275E+03    0.21452E-03   -0.21495E-03 59352   0.233E-01    0.860E-02
DAV:   9    -0.303811570639E+03    0.77636E-04   -0.63628E-04 45336   0.131E-01
   6 F= -.30381157E+03 E0= -.30380799E+03  d E =-.554328E+00
       N       E                     dE             d eps       ncg     rms          rms(c)
DAV:   1    -0.303876563956E+03   -0.64916E-01   -0.70855E+00 41280   0.936E+00    0.162E+00
DAV:   2    -0.303980425813E+03   -0.10386E+00   -0.10293E+00 69936   0.560E+00    0.276E+00
DAV:   3    -0.303918565997E+03    0.61860E-01   -0.66561E-01 68964   0.427E+00    0.142E+00
DAV:   4    -0.303912347478E+03    0.62185E-02   -0.21441E-01 74112   0.205E+00    0.106E+00
DAV:   5    -0.303904084495E+03    0.82630E-02   -0.13700E-01 70188   0.171E+00    0.899E-01
DAV:   6    -0.303898134993E+03    0.59495E-02   -0.75449E-02 71916   0.124E+00    0.480E-01
DAV:   7    -0.303897917533E+03    0.21746E-03   -0.31171E-02 74640   0.833E-01    0.483E-01
DAV:   8    -0.303896535399E+03    0.13821E-02   -0.22779E-02 67704   0.664E-01    0.326E-01
DAV:   9    -0.303895765714E+03    0.76969E-03   -0.68078E-03 61656   0.376E-01    0.188E-01
DAV:  10    -0.303895567301E+03    0.19841E-03   -0.21584E-03 62064   0.201E-01    0.125E-01
DAV:  11    -0.303895674232E+03   -0.10693E-03   -0.13612E-03 56160   0.164E-01    0.126E-01
DAV:  12    -0.303895689889E+03   -0.15657E-04   -0.12796E-03 56256   0.164E-01    0.795E-02
DAV:  13    -0.303895696494E+03   -0.66051E-05   -0.11009E-03 54348   0.165E-01    0.832E-02
DAV:  14    -0.303895633690E+03    0.62805E-04   -0.67226E-04 46680   0.143E-01
   7 F= -.30389563E+03 E0= -.30389248E+03  d E =-.840631E-01
       N       E                     dE             d eps       ncg     rms          rms(c)
DAV:   1    -0.303857299085E+03    0.38397E-01   -0.28647E+01 41280   0.189E+01    0.320E+00
DAV:   2    -0.304255667174E+03   -0.39837E+00   -0.39999E+00 69768   0.110E+01    0.540E+00
DAV:   3    -0.304020672252E+03    0.23499E+00   -0.25812E+00 69408   0.861E+00    0.273E+00
DAV:   4    -0.303998003554E+03    0.22669E-01   -0.84405E-01 74184   0.406E+00    0.204E+00
DAV:   5    -0.303963375857E+03    0.34628E-01   -0.49765E-01 70800   0.317E+00    0.170E+00
DAV:   6    -0.303942539084E+03    0.20837E-01   -0.30248E-01 70896   0.245E+00    0.906E-01
DAV:   7    -0.303939148301E+03    0.33908E-02   -0.10979E-01 76092   0.146E+00    0.725E-01
DAV:   8    -0.303936346904E+03    0.28014E-02   -0.64571E-02 72552   0.116E+00    0.584E-01
DAV:   9    -0.303934208305E+03    0.21386E-02   -0.22686E-02 64788   0.691E-01    0.379E-01
DAV:  10    -0.303933419665E+03    0.78864E-03   -0.76313E-03 63276   0.384E-01    0.251E-01
DAV:  11    -0.303933774701E+03   -0.35504E-03   -0.50829E-03 62100   0.309E-01    0.239E-01
DAV:  12    -0.303933806134E+03   -0.31434E-04   -0.45505E-03 62880   0.289E-01    0.143E-01
DAV:  13    -0.303933860549E+03   -0.54415E-04   -0.37506E-03 65904   0.279E-01    0.140E-01
DAV:  14    -0.303933772609E+03    0.87939E-04   -0.28980E-03 58788   0.260E-01    0.102E-01
DAV:  15    -0.303933682705E+03    0.89905E-04   -0.10744E-03 55056   0.158E-01    0.458E-02
DAV:  16    -0.303933651639E+03    0.31066E-04   -0.17027E-04 27576   0.870E-02
   8 F= -.30393365E+03 E0= -.30393132E+03  d E =-.122081E+00
       N       E                     dE             d eps       ncg     rms          rms(c)
DAV:   1    -0.303935220935E+03   -0.15382E-02   -0.20235E+00 41280   0.497E+00    0.863E-01
DAV:   2    -0.303964046615E+03   -0.28826E-01   -0.29315E-01 69936   0.300E+00    0.142E+00
DAV:   3    -0.303947112534E+03    0.16934E-01   -0.18609E-01 68940   0.224E+00    0.768E-01
DAV:   4    -0.303944259398E+03    0.28531E-02   -0.57298E-02 72648   0.105E+00    0.533E-01
DAV:   5    -0.303942730909E+03    0.15285E-02   -0.40012E-02 69708   0.914E-01    0.505E-01
DAV:   6    -0.303940595324E+03    0.21356E-02   -0.22388E-02 69144   0.676E-01    0.225E-01
DAV:   7    -0.303940462976E+03    0.13235E-03   -0.81080E-03 69612   0.384E-01    0.191E-01
DAV:   8    -0.303940165102E+03    0.29787E-03   -0.41566E-03 64644   0.280E-01    0.115E-01
DAV:   9    -0.303940054731E+03    0.11037E-03   -0.10813E-03 55884   0.149E-01    0.759E-02
DAV:  10    -0.303940038911E+03    0.15820E-04   -0.31846E-04 35232   0.998E-02
   9 F= -.30394004E+03 E0= -.30393749E+03  d E =-.128468E+00
       N       E                     dE             d eps       ncg     rms          rms(c)
DAV:   1    -0.303997263745E+03   -0.57209E-01   -0.50043E+00 41292   0.867E+00    0.184E+00
DAV:   2    -0.304072068765E+03   -0.74805E-01   -0.92051E-01 73356   0.502E+00    0.247E+00
DAV:   3    -0.304028131518E+03    0.43937E-01   -0.72328E-01 71748   0.418E+00    0.183E+00
DAV:   4    -0.304009263288E+03    0.18868E-01   -0.34281E-01 67920   0.262E+00    0.122E+00
DAV:   5    -0.303996679901E+03    0.12583E-01   -0.17092E-01 68028   0.173E+00    0.821E-01
DAV:   6    -0.303992060555E+03    0.46193E-02   -0.78059E-02 71544   0.142E+00    0.604E-01
DAV:   7    -0.303990712437E+03    0.13481E-02   -0.44247E-02 76452   0.907E-01    0.494E-01
DAV:   8    -0.303989274660E+03    0.14378E-02   -0.18103E-02 66048   0.620E-01    0.299E-01
DAV:   9    -0.303988929533E+03    0.34513E-03   -0.78082E-03 60156   0.401E-01    0.220E-01
DAV:  10    -0.303988751765E+03    0.17777E-03   -0.31807E-03 59316   0.258E-01    0.158E-01
DAV:  11    -0.303988826859E+03   -0.75094E-04   -0.11349E-03 55152   0.158E-01    0.122E-01
DAV:  12    -0.303988991205E+03   -0.16435E-03   -0.15047E-03 61152   0.159E-01    0.953E-02
DAV:  13    -0.303989044796E+03   -0.53591E-04   -0.16867E-03 63852   0.190E-01    0.929E-02
DAV:  14    -0.303988969526E+03    0.75270E-04   -0.71177E-04 47208   0.147E-01
  10 F= -.30398897E+03 E0= -.30398672E+03  d E =-.489306E-01
       N       E                     dE             d eps       ncg     rms          rms(c)
DAV:   1    -0.304014758714E+03   -0.25714E-01   -0.56079E+00 41280   0.918E+00    0.197E+00
DAV:   2    -0.304095414152E+03   -0.80655E-01   -0.10240E+00 73488   0.534E+00    0.256E+00
DAV:   3    -0.304049003737E+03    0.46410E-01   -0.79106E-01 71652   0.444E+00    0.190E+00
DAV:   4    -0.304025921896E+03    0.23082E-01   -0.36503E-01 68184   0.272E+00    0.120E+00
DAV:   5    -0.304013657204E+03    0.12265E-01   -0.18824E-01 67764   0.176E+00    0.855E-01
DAV:   6    -0.304008571691E+03    0.50855E-02   -0.86802E-02 70104   0.149E+00    0.607E-01
DAV:   7    -0.304006946348E+03    0.16253E-02   -0.44990E-02 77448   0.920E-01    0.464E-01
DAV:   8    -0.304006025565E+03    0.92078E-03   -0.18676E-02 66708   0.631E-01    0.342E-01
DAV:   9    -0.304005438138E+03    0.58743E-03   -0.87711E-03 58848   0.442E-01    0.232E-01
DAV:  10    -0.304005234542E+03    0.20360E-03   -0.33671E-03 58956   0.263E-01    0.164E-01
DAV:  11    -0.304005310333E+03   -0.75791E-04   -0.11490E-03 55260   0.161E-01    0.127E-01
DAV:  12    -0.304005489078E+03   -0.17874E-03   -0.15952E-03 61368   0.169E-01    0.104E-01
DAV:  13    -0.304005549022E+03   -0.59945E-04   -0.18635E-03 63540   0.204E-01    0.995E-02
DAV:  14    -0.304005459681E+03    0.89341E-04   -0.82757E-04 49416   0.156E-01
  11 F= -.30400546E+03 E0= -.30400348E+03  d E =-.654208E-01
       N       E                     dE             d eps       ncg     rms          rms(c)
DAV:   1    -0.304014941730E+03   -0.93927E-02   -0.93633E-01 41292   0.316E+00    0.308E-01
DAV:   2    -0.304025681086E+03   -0.10739E-01   -0.91035E-02 69528   0.171E+00    0.695E-01
DAV:   3    -0.304020658198E+03    0.50229E-02   -0.37958E-02 69780   0.100E+00    0.275E-01
DAV:   4    -0.304020374055E+03    0.28414E-03   -0.92081E-03 59856   0.452E-01    0.213E-01
DAV:   5    -0.304019917835E+03    0.45622E-03   -0.37526E-03 60732   0.284E-01    0.117E-01
DAV:   6    -0.304019953877E+03   -0.36041E-04   -0.16501E-03 56232   0.196E-01    0.130E-01
DAV:   7    -0.304019874655E+03    0.79222E-04   -0.14086E-03 52392   0.198E-01    0.989E-02
DAV:   8    -0.304019834889E+03    0.39766E-04   -0.11350E-03 53520   0.171E-01    0.752E-02
DAV:   9    -0.304019763872E+03    0.71017E-04   -0.39060E-04 38244   0.121E-01
  12 F= -.30401976E+03 E0= -.30401793E+03  d E =-.143042E-01
       N       E                     dE             d eps       ncg     rms          rms(c)
DAV:   1    -0.304000174285E+03    0.19661E-01   -0.84218E+00 41292   0.949E+00    0.933E-01
DAV:   2    -0.304095362163E+03   -0.95188E-01   -0.81246E-01 69552   0.511E+00    0.201E+00
DAV:   3    -0.304051716353E+03    0.43646E-01   -0.33025E-01 69984   0.291E+00    0.840E-01
DAV:   4    -0.304049381908E+03    0.23344E-02   -0.87781E-02 70032   0.139E+00    0.648E-01
DAV:   5    -0.304045022032E+03    0.43599E-02   -0.32969E-02 68880   0.809E-01    0.336E-01
DAV:   6    -0.304045484239E+03   -0.46221E-03   -0.15293E-02 68928   0.566E-01    0.396E-01
DAV:   7    -0.304044772356E+03    0.71188E-03   -0.13163E-02 65412   0.575E-01    0.295E-01
DAV:   8    -0.304044266355E+03    0.50600E-03   -0.98245E-03 68844   0.456E-01    0.212E-01
DAV:   9    -0.304043740223E+03    0.52613E-03   -0.39931E-03 60780   0.310E-01    0.106E-01
DAV:  10    -0.304043677382E+03    0.62841E-04   -0.14328E-03 56460   0.173E-01    0.777E-02
DAV:  11    -0.304043647549E+03    0.29833E-04   -0.59356E-04 44148   0.134E-01
  13 F= -.30404365E+03 E0= -.30404214E+03  d E =-.381879E-01
       N       E                     dE             d eps       ncg     rms          rms(c)
DAV:   1    -0.304041195030E+03    0.24824E-02   -0.74532E-01 41280   0.283E+00    0.278E-01
DAV:   2    -0.304050041802E+03   -0.88468E-02   -0.75080E-02 69600   0.155E+00    0.644E-01
DAV:   3    -0.304045721009E+03    0.43208E-02   -0.32548E-02 69636   0.929E-01    0.249E-01
DAV:   4    -0.304045437032E+03    0.28398E-03   -0.73610E-03 60228   0.400E-01    0.181E-01
DAV:   5    -0.304045101596E+03    0.33544E-03   -0.28683E-03 61044   0.242E-01    0.104E-01
DAV:   6    -0.304045130715E+03   -0.29119E-04   -0.13689E-03 55572   0.183E-01    0.116E-01
DAV:   7    -0.304045057150E+03    0.73565E-04   -0.11583E-03 51756   0.175E-01    0.835E-02
DAV:   8    -0.304045043444E+03    0.13706E-04   -0.80189E-04 46500   0.153E-01
  14 F= -.30404504E+03 E0= -.30404361E+03  d E =-.395838E-01
       N       E                     dE             d eps       ncg     rms          rms(c)
DAV:   1    -0.304052045561E+03   -0.69884E-02   -0.86477E-01 41376   0.369E+00    0.777E-01
DAV:   2    -0.304057021016E+03   -0.49755E-02   -0.12433E-01 70224   0.169E+00    0.590E-01
DAV:   3    -0.304059505903E+03   -0.24849E-02   -0.95107E-02 70152   0.136E+00    0.820E-01
DAV:   4    -0.304054467891E+03    0.50380E-02   -0.53738E-02 65820   0.114E+00    0.437E-01
DAV:   5    -0.304052764006E+03    0.17039E-02   -0.23422E-02 70260   0.670E-01    0.337E-01
DAV:   6    -0.304052121058E+03    0.64295E-03   -0.12194E-02 64884   0.521E-01    0.243E-01
DAV:   7    -0.304051698322E+03    0.42274E-03   -0.50594E-03 62424   0.322E-01    0.135E-01
DAV:   8    -0.304051648775E+03    0.49547E-04   -0.25619E-03 60588   0.238E-01    0.114E-01
DAV:   9    -0.304051556821E+03    0.91954E-04   -0.94172E-04 52068   0.158E-01
  15 F= -.30405156E+03 E0= -.30405011E+03  d E =-.651338E-02
       N       E                     dE             d eps       ncg     rms          rms(c)
DAV:   1    -0.304052987222E+03   -0.13384E-02   -0.66482E-01 41304   0.323E+00    0.660E-01
DAV:   2    -0.304056548859E+03   -0.35616E-02   -0.90633E-02 69012   0.143E+00    0.464E-01
DAV:   3    -0.304057817937E+03   -0.12691E-02   -0.63694E-02 69804   0.106E+00    0.632E-01
DAV:   4    -0.304054857311E+03    0.29606E-02   -0.36300E-02 64092   0.925E-01    0.372E-01
DAV:   5    -0.304053559099E+03    0.12982E-02   -0.16176E-02 70224   0.565E-01    0.265E-01
DAV:   6    -0.304053208163E+03    0.35094E-03   -0.80663E-03 61752   0.432E-01    0.199E-01
DAV:   7    -0.304052994051E+03    0.21411E-03   -0.31943E-03 61080   0.271E-01    0.136E-01
DAV:   8    -0.304052911042E+03    0.83009E-04   -0.18605E-03 59424   0.215E-01    0.991E-02
DAV:   9    -0.304052846066E+03    0.64976E-04   -0.51965E-04 42612   0.128E-01
  16 F= -.30405285E+03 E0= -.30405137E+03  d E =-.780262E-02
       N       E                     dE             d eps       ncg     rms          rms(c)
DAV:   1    -0.304055718615E+03   -0.28076E-02   -0.37529E-01 41304   0.206E+00    0.282E-01
DAV:   2    -0.304059056111E+03   -0.33375E-02   -0.39866E-02 70428   0.103E+00    0.390E-01
DAV:   3    -0.304057999916E+03    0.10562E-02   -0.18575E-02 70740   0.653E-01    0.274E-01
DAV:   4    -0.304057728687E+03    0.27123E-03   -0.81433E-03 61944   0.407E-01    0.220E-01
DAV:   5    -0.304057340098E+03    0.38859E-03   -0.42617E-03 60600   0.309E-01    0.149E-01
DAV:   6    -0.304057217291E+03    0.12281E-03   -0.24228E-03 58668   0.227E-01    0.107E-01
DAV:   7    -0.304057178274E+03    0.39017E-04   -0.15557E-03 56904   0.189E-01    0.894E-02
DAV:   8    -0.304057120040E+03    0.58235E-04   -0.91295E-04 50460   0.160E-01
  17 F= -.30405712E+03 E0= -.30405555E+03  d E =-.427397E-02
       N       E                     dE             d eps       ncg     rms          rms(c)
DAV:   1    -0.304049151790E+03    0.80265E-02   -0.33725E+00 41328   0.617E+00    0.792E-01
DAV:   2    -0.304079279586E+03   -0.30128E-01   -0.34922E-01 69924   0.308E+00    0.116E+00
DAV:   3    -0.304069132156E+03    0.10147E-01   -0.15824E-01 70296   0.191E+00    0.750E-01
DAV:   4    -0.304067349502E+03    0.17827E-02   -0.65537E-02 70128   0.117E+00    0.611E-01
DAV:   5    -0.304064086498E+03    0.32630E-02   -0.33224E-02 68532   0.849E-01    0.400E-01
DAV:   6    -0.304063108937E+03    0.97756E-03   -0.17535E-02 69420   0.591E-01    0.266E-01
DAV:   7    -0.304062944187E+03    0.16475E-03   -0.10185E-02 71424   0.446E-01    0.231E-01
DAV:   8    -0.304062518781E+03    0.42541E-03   -0.54822E-03 61248   0.338E-01    0.138E-01
DAV:   9    -0.304062346449E+03    0.17233E-03   -0.13408E-03 57612   0.184E-01    0.785E-02
DAV:  10    -0.304062315446E+03    0.31002E-04   -0.25600E-04 31548   0.958E-02
  18 F= -.30406232E+03 E0= -.30406056E+03  d E =-.946938E-02
       N       E                     dE             d eps       ncg     rms          rms(c)
DAV:   1    -0.304064264357E+03   -0.19179E-02   -0.19566E-01 41280   0.137E+00    0.136E-01
DAV:   2    -0.304065480684E+03   -0.12163E-02   -0.13760E-02 69144   0.582E-01    0.215E-01
DAV:   3    -0.304065173623E+03    0.30706E-03   -0.54486E-03 64584   0.368E-01    0.138E-01
DAV:   4    -0.304065075228E+03    0.98396E-04   -0.16248E-03 56784   0.193E-01    0.894E-02
DAV:   5    -0.304065017469E+03    0.57759E-04   -0.82323E-04 50748   0.134E-01
  19 F= -.30406502E+03 E0= -.30406325E+03  d E =-.270202E-02
       N       E                     dE             d eps       ncg     rms          rms(c)
DAV:   1    -0.304065359739E+03   -0.28451E-03   -0.17537E+00 41280   0.408E+00    0.400E-01
DAV:   2    -0.304077730905E+03   -0.12371E-01   -0.13447E-01 69180   0.190E+00    0.792E-01
DAV:   3    -0.304072839571E+03    0.48913E-02   -0.55168E-02 66936   0.117E+00    0.390E-01
DAV:   4    -0.304071856253E+03    0.98332E-03   -0.13611E-02 62880   0.509E-01    0.234E-01
DAV:   5    -0.304071637695E+03    0.21856E-03   -0.68324E-03 66984   0.390E-01    0.218E-01
DAV:   6    -0.304071303248E+03    0.33445E-03   -0.50750E-03 61296   0.355E-01    0.150E-01
DAV:   7    -0.304071294379E+03    0.88694E-05   -0.29666E-03 62340   0.252E-01    0.141E-01
DAV:   8    -0.304071125945E+03    0.16843E-03   -0.19905E-03 60264   0.215E-01    0.899E-02
DAV:   9    -0.304071048219E+03    0.77727E-04   -0.49783E-04 41364   0.126E-01
  20 F= -.30407105E+03 E0= -.30406921E+03  d E =-.873277E-02
       N       E                     dE             d eps       ncg     rms          rms(c)
DAV:   1    -0.304052118268E+03    0.19008E-01   -0.70215E+00 41280   0.817E+00    0.799E-01
DAV:   2    -0.304103343013E+03   -0.51225E-01   -0.55446E-01 69240   0.392E+00    0.158E+00
DAV:   3    -0.304083123347E+03    0.20220E-01   -0.22212E-01 66864   0.234E+00    0.808E-01
DAV:   4    -0.304078614062E+03    0.45093E-02   -0.58472E-02 70392   0.105E+00    0.453E-01
DAV:   5    -0.304077533725E+03    0.10803E-02   -0.24508E-02 66660   0.682E-01    0.413E-01
DAV:   6    -0.304076539493E+03    0.99423E-03   -0.18835E-02 69468   0.674E-01    0.303E-01
DAV:   7    -0.304076379168E+03    0.16033E-03   -0.11180E-02 66396   0.479E-01    0.242E-01
DAV:   8    -0.304075684194E+03    0.69497E-03   -0.64177E-03 67764   0.335E-01    0.133E-01
DAV:   9    -0.304075552129E+03    0.13207E-03   -0.16566E-03 57468   0.208E-01    0.102E-01
DAV:  10    -0.304075484831E+03    0.67298E-04   -0.60915E-04 44256   0.128E-01
  21 F= -.30407548E+03 E0= -.30407365E+03  d E =-.131694E-01
       N       E                     dE             d eps       ncg     rms          rms(c)
DAV:   1    -0.304077126343E+03   -0.15742E-02   -0.10736E-01 41448   0.106E+00    0.165E-01
DAV:   2    -0.304077883444E+03   -0.75710E-03   -0.10184E-02 70392   0.490E-01    0.209E-01
DAV:   3    -0.304077653796E+03    0.22965E-03   -0.58431E-03 64980   0.376E-01    0.165E-01
DAV:   4    -0.304077476397E+03    0.17740E-03   -0.21750E-03 59004   0.223E-01    0.977E-02
DAV:   5    -0.304077443077E+03    0.33320E-04   -0.13948E-03 54768   0.172E-01    0.103E-01
DAV:   6    -0.304077363505E+03    0.79572E-04   -0.83134E-04 48732   0.153E-01
  22 F= -.30407736E+03 E0= -.30407554E+03  d E =-.187867E-02
       N       E                     dE             d eps       ncg     rms          rms(c)
DAV:   1    -0.304079095126E+03   -0.16520E-02   -0.95898E-01 41280   0.315E+00    0.419E-01
DAV:   2    -0.304084670747E+03   -0.55756E-02   -0.77631E-02 69684   0.134E+00    0.483E-01
DAV:   3    -0.304084007196E+03    0.66355E-03   -0.37453E-02 69276   0.914E-01    0.421E-01
DAV:   4    -0.304082786951E+03    0.12202E-02   -0.15201E-02 59604   0.594E-01    0.262E-01
DAV:   5    -0.304082196727E+03    0.59022E-03   -0.68184E-03 64176   0.366E-01    0.164E-01
DAV:   6    -0.304082108463E+03    0.88264E-04   -0.41454E-03 68028   0.324E-01    0.157E-01
DAV:   7    -0.304081941207E+03    0.16726E-03   -0.30189E-03 61728   0.258E-01    0.103E-01
DAV:   8    -0.304081884109E+03    0.57098E-04   -0.11090E-03 54312   0.164E-01    0.759E-02
DAV:   9    -0.304081828248E+03    0.55861E-04   -0.36165E-04 38208   0.111E-01
  23 F= -.30408183E+03 E0= -.30408007E+03  d E =-.634342E-02
       N       E                     dE             d eps       ncg     rms          rms(c)
DAV:   1    -0.304075000833E+03    0.68833E-02   -0.38481E+00 41280   0.635E+00    0.841E-01
DAV:   2    -0.304097282551E+03   -0.22282E-01   -0.30903E-01 69420   0.268E+00    0.992E-01
DAV:   3    -0.304095637994E+03    0.16446E-02   -0.15754E-01 68580   0.193E+00    0.911E-01
DAV:   4    -0.304089529872E+03    0.61081E-02   -0.60683E-02 66948   0.120E+00    0.487E-01
DAV:   5    -0.304087734005E+03    0.17959E-02   -0.27673E-02 70404   0.731E-01    0.365E-01
DAV:   6    -0.304087094511E+03    0.63949E-03   -0.18227E-02 70152   0.662E-01    0.315E-01
DAV:   7    -0.304086408725E+03    0.68579E-03   -0.11608E-02 71052   0.477E-01    0.200E-01
DAV:   8    -0.304086192064E+03    0.21666E-03   -0.42969E-03 61848   0.286E-01    0.147E-01
DAV:   9    -0.304086030579E+03    0.16149E-03   -0.18389E-03 57432   0.196E-01    0.925E-02
DAV:  10    -0.304085989888E+03    0.40691E-04   -0.53356E-04 43152   0.122E-01
  24 F= -.30408599E+03 E0= -.30408439E+03  d E =-.105051E-01
       N       E                     dE             d eps       ncg     rms          rms(c)
DAV:   1    -0.304089586590E+03   -0.35560E-02   -0.80644E-01 42792   0.268E+00    0.203E-01
DAV:   2    -0.304094387373E+03   -0.48008E-02   -0.46965E-02 69312   0.109E+00    0.465E-01
DAV:   3    -0.304092513716E+03    0.18737E-02   -0.17431E-02 69300   0.659E-01    0.193E-01
DAV:   4    -0.304092307967E+03    0.20575E-03   -0.32621E-03 59784   0.272E-01    0.140E-01
DAV:   5    -0.304092226442E+03    0.81525E-04   -0.15950E-03 55380   0.197E-01    0.119E-01
DAV:   6    -0.304092164142E+03    0.62300E-04   -0.97585E-04 50760   0.164E-01
  25 F= -.30409216E+03 E0= -.30409063E+03  d E =-.617425E-02
       N       E                     dE             d eps       ncg     rms          rms(c)
DAV:   1    -0.304085573240E+03    0.66532E-02   -0.72306E+00 42780   0.800E+00    0.588E-01
DAV:   2    -0.304128322234E+03   -0.42749E-01   -0.41894E-01 69540   0.327E+00    0.134E+00
DAV:   3    -0.304111794392E+03    0.16528E-01   -0.14417E-01 69624   0.188E+00    0.504E-01
DAV:   4    -0.304110533606E+03    0.12608E-02   -0.26948E-02 68148   0.786E-01    0.407E-01
DAV:   5    -0.304109886101E+03    0.64751E-03   -0.15541E-02 61848   0.596E-01    0.345E-01
DAV:   6    -0.304109215377E+03    0.67072E-03   -0.89820E-03 62208   0.464E-01    0.241E-01
DAV:   7    -0.304109062693E+03    0.15268E-03   -0.70706E-03 66900   0.354E-01    0.205E-01
DAV:   8    -0.304108841465E+03    0.22123E-03   -0.60785E-03 62076   0.348E-01    0.180E-01
DAV:   9    -0.304108509064E+03    0.33240E-03   -0.30963E-03 57264   0.264E-01    0.855E-02
DAV:  10    -0.304108435475E+03    0.73588E-04   -0.80691E-04 50724   0.128E-01
  26 F= -.30410844E+03 E0= -.30410707E+03  d E =-.224456E-01
       N       E                     dE             d eps       ncg     rms          rms(c)
DAV:   1    -0.304035313636E+03    0.73195E-01   -0.28765E+01 42432   0.160E+01    0.122E+00
DAV:   2    -0.304207071934E+03   -0.17176E+00   -0.17369E+00 70464   0.650E+00    0.253E+00
DAV:   3    -0.304149042201E+03    0.58030E-01   -0.60812E-01 69036   0.392E+00    0.116E+00
DAV:   4    -0.304138010927E+03    0.11031E-01   -0.12270E-01 70104   0.169E+00    0.709E-01
DAV:   5    -0.304137551400E+03    0.45953E-03   -0.61896E-02 69360   0.116E+00    0.716E-01
DAV:   6    -0.304134217813E+03    0.33336E-02   -0.36879E-02 66288   0.968E-01    0.460E-01
DAV:   7    -0.304133286616E+03    0.93120E-03   -0.21676E-02 70188   0.626E-01    0.359E-01
DAV:   8    -0.304133116058E+03    0.17056E-03   -0.21044E-02 70644   0.635E-01    0.367E-01
DAV:   9    -0.304131787830E+03    0.13282E-02   -0.13082E-02 63216   0.541E-01    0.192E-01
DAV:  10    -0.304131380051E+03    0.40778E-03   -0.37628E-03 63564   0.256E-01    0.894E-02
DAV:  11    -0.304131362064E+03    0.17987E-04   -0.11527E-03 54552   0.155E-01    0.785E-02
DAV:  12    -0.304131313588E+03    0.48476E-04   -0.35511E-04 36060   0.118E-01
  27 F= -.30413131E+03 E0= -.30413020E+03  d E =-.453237E-01
       N       E                     dE             d eps       ncg     rms          rms(c)
DAV:   1    -0.303733223755E+03    0.39814E+00   -0.11298E+02 43296   0.319E+01    0.276E+00
DAV:   2    -0.304426285079E+03   -0.69306E+00   -0.72998E+00 71844   0.121E+01    0.491E+00
DAV:   3    -0.304204901479E+03    0.22138E+00   -0.27437E+00 69048   0.829E+00    0.267E+00
DAV:   4    -0.304135772899E+03    0.69129E-01   -0.61442E-01 70692   0.377E+00    0.142E+00
DAV:   5    -0.304134870479E+03    0.90242E-03   -0.26271E-01 69948   0.225E+00    0.145E+00
DAV:   6    -0.304122701455E+03    0.12169E-01   -0.15881E-01 69444   0.200E+00    0.970E-01
DAV:   7    -0.304117656166E+03    0.50453E-02   -0.77940E-02 70272   0.125E+00    0.712E-01
DAV:   8    -0.304118428035E+03   -0.77187E-03   -0.82149E-02 73620   0.126E+00    0.794E-01
DAV:   9    -0.304112427464E+03    0.60006E-02   -0.57374E-02 70152   0.113E+00    0.422E-01
DAV:  10    -0.304110376440E+03    0.20510E-02   -0.18378E-02 73608   0.565E-01    0.212E-01
DAV:  11    -0.304110201006E+03    0.17543E-03   -0.58008E-03 60624   0.335E-01    0.171E-01
DAV:  12    -0.304109999854E+03    0.20115E-03   -0.22778E-03 61824   0.222E-01    0.872E-02
DAV:  13    -0.304109944053E+03    0.55801E-04   -0.67833E-04 48348   0.115E-01
  28 F= -.30410994E+03 E0= -.30410839E+03  d E =-.239542E-01
       N       E                     dE             d eps       ncg     rms          rms(c)
DAV:   1    -0.303882088488E+03    0.22791E+00   -0.63362E+01 41820   0.240E+01    0.215E+00
DAV:   2    -0.304352346960E+03   -0.47026E+00   -0.44698E+00 68016   0.113E+01    0.482E+00
DAV:   3    -0.304183877852E+03    0.16847E+00   -0.18422E+00 68052   0.713E+00    0.187E+00
DAV:   4    -0.304157679346E+03    0.26199E-01   -0.27926E-01 67764   0.255E+00    0.134E+00
DAV:   5    -0.304146167888E+03    0.11511E-01   -0.14206E-01 67728   0.180E+00    0.957E-01
DAV:   6    -0.304143389137E+03    0.27788E-02   -0.59084E-02 70800   0.116E+00    0.807E-01
DAV:   7    -0.304141151764E+03    0.22374E-02   -0.44066E-02 71820   0.884E-01    0.640E-01
DAV:   8    -0.304141143352E+03    0.84121E-05   -0.49505E-02 64956   0.109E+00    0.670E-01
DAV:   9    -0.304136735829E+03    0.44075E-02   -0.39263E-02 70800   0.952E-01    0.308E-01
DAV:  10    -0.304136034473E+03    0.70136E-03   -0.11510E-02 69636   0.466E-01    0.201E-01
DAV:  11    -0.304135785851E+03    0.24862E-03   -0.42795E-03 60084   0.305E-01    0.130E-01
DAV:  12    -0.304135673587E+03    0.11226E-03   -0.12745E-03 56592   0.177E-01    0.871E-02
DAV:  13    -0.304135617022E+03    0.56565E-04   -0.50340E-04 42192   0.121E-01
  29 F= -.30413562E+03 E0= -.30413447E+03  d E =-.496271E-01
       N       E                     dE             d eps       ncg     rms          rms(c)
DAV:   1    -0.304126240716E+03    0.94329E-02   -0.59669E+00 41460   0.761E+00    0.726E-01
DAV:   2    -0.304183587981E+03   -0.57347E-01   -0.53894E-01 68988   0.398E+00    0.174E+00
DAV:   3    -0.304155472172E+03    0.28116E-01   -0.22165E-01 67524   0.238E+00    0.635E-01
DAV:   4    -0.304152817514E+03    0.26547E-02   -0.41879E-02 68244   0.997E-01    0.453E-01
DAV:   5    -0.304152141718E+03    0.67580E-03   -0.23229E-02 64452   0.749E-01    0.408E-01
DAV:   6    -0.304150917813E+03    0.12239E-02   -0.11186E-02 65256   0.505E-01    0.232E-01
DAV:   7    -0.304150998450E+03   -0.80638E-04   -0.76078E-03 67776   0.424E-01    0.236E-01
DAV:   8    -0.304150730619E+03    0.26783E-03   -0.80989E-03 69504   0.418E-01    0.189E-01
DAV:   9    -0.304150356753E+03    0.37387E-03   -0.30719E-03 61608   0.258E-01    0.954E-02
DAV:  10    -0.304150274410E+03    0.82344E-04   -0.85904E-04 52248   0.141E-01
  30 F= -.30415027E+03 E0= -.30414911E+03  d E =-.146574E-01
       N       E                     dE             d eps       ncg     rms          rms(c)
DAV:   1    -0.304057205016E+03    0.93152E-01   -0.27525E+01 41760   0.163E+01    0.153E+00
DAV:   2    -0.304300353005E+03   -0.24315E+00   -0.23803E+00 69624   0.817E+00    0.339E+00
DAV:   3    -0.304190901070E+03    0.10945E+00   -0.92227E-01 67536   0.487E+00    0.139E+00
DAV:   4    -0.304176295170E+03    0.14606E-01   -0.19154E-01 68940   0.214E+00    0.906E-01
DAV:   5    -0.304175097523E+03    0.11976E-02   -0.10262E-01 68124   0.156E+00    0.899E-01
DAV:   6    -0.304169224772E+03    0.58728E-02   -0.54228E-02 68004   0.115E+00    0.501E-01
DAV:   7    -0.304168853675E+03    0.37110E-03   -0.32819E-02 73368   0.863E-01    0.446E-01
DAV:   8    -0.304167990821E+03    0.86285E-03   -0.32244E-02 73680   0.818E-01    0.385E-01
DAV:   9    -0.304166531388E+03    0.14594E-02   -0.13511E-02 68040   0.538E-01    0.202E-01
DAV:  10    -0.304166145345E+03    0.38604E-03   -0.37399E-03 63312   0.281E-01    0.122E-01
DAV:  11    -0.304166109574E+03    0.35770E-04   -0.13013E-03 55380   0.168E-01    0.947E-02
DAV:  12    -0.304166093678E+03    0.15896E-04   -0.60232E-04 46368   0.124E-01
  31 F= -.30416609E+03 E0= -.30416478E+03  d E =-.304767E-01
       N       E                     dE             d eps       ncg     rms          rms(c)
DAV:   1    -0.304165702160E+03    0.40741E-03   -0.87548E+00 41280   0.104E+01    0.175E+00
DAV:   2    -0.304250892610E+03   -0.85190E-01   -0.10812E+00 70752   0.524E+00    0.235E+00
DAV:   3    -0.304217776815E+03    0.33116E-01   -0.69560E-01 69648   0.395E+00    0.181E+00
DAV:   4    -0.304198672309E+03    0.19105E-01   -0.29145E-01 69672   0.258E+00    0.109E+00
DAV:   5    -0.304186448503E+03    0.12224E-01   -0.13296E-01 67776   0.154E+00    0.675E-01
DAV:   6    -0.304184601571E+03    0.18469E-02   -0.68588E-02 70824   0.132E+00    0.619E-01
DAV:   7    -0.304181742148E+03    0.28594E-02   -0.41503E-02 75576   0.920E-01    0.348E-01
DAV:   8    -0.304180983545E+03    0.75860E-03   -0.14798E-02 69828   0.550E-01    0.256E-01
DAV:   9    -0.304180695012E+03    0.28853E-03   -0.62331E-03 58776   0.376E-01    0.194E-01
DAV:  10    -0.304180488373E+03    0.20664E-03   -0.22224E-03 60504   0.214E-01    0.123E-01
DAV:  11    -0.304180546404E+03   -0.58031E-04   -0.86922E-04 51108   0.146E-01
  32 F= -.30418055E+03 E0= -.30417941E+03  d E =-.144527E-01
       N       E                     dE             d eps       ncg     rms          rms(c)
DAV:   1    -0.304180577781E+03   -0.89408E-04   -0.39936E-02 44376   0.720E-01    0.141E-01
DAV:   2    -0.304181717685E+03   -0.11399E-02   -0.10528E-02 69780   0.547E-01    0.312E-01
DAV:   3    -0.304180657405E+03    0.10603E-02   -0.83117E-03 62220   0.437E-01    0.122E-01
DAV:   4    -0.304180629075E+03    0.28330E-04   -0.17134E-03 56736   0.194E-01    0.104E-01
DAV:   5    -0.304180522051E+03    0.10702E-03   -0.74922E-04 46896   0.148E-01    0.484E-02
DAV:   6    -0.304180503974E+03    0.18077E-04   -0.25780E-04 32472   0.102E-01
  33 F= -.30418050E+03 E0= -.30417941E+03  d E =-.144103E-01
       N       E                     dE             d eps       ncg     rms          rms(c)
DAV:   1    -0.304180089519E+03    0.43253E-03   -0.38103E+00 41280   0.628E+00    0.748E-01
DAV:   2    -0.304229108311E+03   -0.49019E-01   -0.45551E-01 69036   0.378E+00    0.180E+00
DAV:   3    -0.304197910109E+03    0.31198E-01   -0.21986E-01 68088   0.237E+00    0.631E-01
DAV:   4    -0.304195704739E+03    0.22054E-02   -0.46123E-02 68436   0.106E+00    0.496E-01
DAV:   5    -0.304194511068E+03    0.11937E-02   -0.31875E-02 65448   0.852E-01    0.420E-01
DAV:   6    -0.304193177297E+03    0.13338E-02   -0.15745E-02 65616   0.605E-01    0.261E-01
DAV:   7    -0.304192931025E+03    0.24627E-03   -0.94802E-03 68928   0.495E-01    0.215E-01
DAV:   8    -0.304192660451E+03    0.27057E-03   -0.68264E-03 68556   0.370E-01    0.160E-01
DAV:   9    -0.304192385635E+03    0.27482E-03   -0.23236E-03 63204   0.212E-01    0.841E-02
DAV:  10    -0.304192306672E+03    0.78963E-04   -0.57761E-04 46032   0.124E-01
  34 F= -.30419231E+03 E0= -.30419132E+03  d E =-.118027E-01
       N       E                     dE             d eps       ncg     rms          rms(c)
DAV:   1    -0.304176138201E+03    0.16247E-01   -0.68311E+00 41280   0.841E+00    0.986E-01
DAV:   2    -0.304259188055E+03   -0.83050E-01   -0.78548E-01 69120   0.495E+00    0.228E+00
DAV:   3    -0.304208407438E+03    0.50781E-01   -0.36953E-01 68232   0.310E+00    0.840E-01
DAV:   4    -0.304204193096E+03    0.42143E-02   -0.78763E-02 69108   0.139E+00    0.631E-01
DAV:   5    -0.304202393962E+03    0.17991E-02   -0.54312E-02 65616   0.111E+00    0.555E-01
DAV:   6    -0.304200165640E+03    0.22283E-02   -0.27643E-02 67896   0.813E-01    0.349E-01
DAV:   7    -0.304199636858E+03    0.52878E-03   -0.16137E-02 72972   0.641E-01    0.271E-01
DAV:   8    -0.304199212811E+03    0.42405E-03   -0.11132E-02 73080   0.471E-01    0.212E-01
DAV:   9    -0.304198756489E+03    0.45632E-03   -0.38165E-03 64908   0.271E-01    0.110E-01
DAV:  10    -0.304198643547E+03    0.11294E-03   -0.10131E-03 54108   0.151E-01    0.682E-02
DAV:  11    -0.304198623767E+03    0.19779E-04   -0.23365E-04 32340   0.103E-01
  35 F= -.30419862E+03 E0= -.30419776E+03  d E =-.181198E-01
       N       E                     dE             d eps       ncg     rms          rms(c)
DAV:   1    -0.304201456376E+03   -0.28128E-02   -0.21163E+00 42552   0.464E+00    0.448E-01
DAV:   2    -0.304215673322E+03   -0.14217E-01   -0.15592E-01 69564   0.194E+00    0.759E-01
DAV:   3    -0.304211002635E+03    0.46707E-02   -0.58758E-02 72144   0.120E+00    0.436E-01
DAV:   4    -0.304209889026E+03    0.11136E-02   -0.18300E-02 67644   0.644E-01    0.310E-01
DAV:   5    -0.304208918635E+03    0.97039E-03   -0.91049E-03 66216   0.403E-01    0.194E-01
DAV:   6    -0.304209097217E+03   -0.17858E-03   -0.60091E-03 60336   0.381E-01    0.238E-01
DAV:   7    -0.304208586984E+03    0.51023E-03   -0.45635E-03 64284   0.333E-01    0.107E-01
DAV:   8    -0.304208471315E+03    0.11567E-03   -0.15793E-03 63336   0.180E-01    0.765E-02
DAV:   9    -0.304208414031E+03    0.57284E-04   -0.64050E-04 44700   0.137E-01
  36 F= -.30420841E+03 E0= -.30420753E+03  d E =-.979026E-02
       N       E                     dE             d eps       ncg     rms          rms(c)
DAV:   1    -0.304200217567E+03    0.82537E-02   -0.38214E+00 42504   0.624E+00    0.599E-01
DAV:   2    -0.304226853646E+03   -0.26636E-01   -0.28368E-01 69504   0.264E+00    0.105E+00
DAV:   3    -0.304217750023E+03    0.91036E-02   -0.10824E-01 71868   0.164E+00    0.572E-01
DAV:   4    -0.304215924444E+03    0.18256E-02   -0.32325E-02 69072   0.851E-01    0.411E-01
DAV:   5    -0.304214174901E+03    0.17495E-02   -0.16132E-02 67416   0.534E-01    0.254E-01
DAV:   6    -0.304214510462E+03   -0.33556E-03   -0.10575E-02 66360   0.501E-01    0.313E-01
DAV:   7    -0.304213633344E+03    0.87712E-03   -0.78913E-03 63768   0.425E-01    0.145E-01
DAV:   8    -0.304213432410E+03    0.20093E-03   -0.27137E-03 67644   0.237E-01    0.107E-01
DAV:   9    -0.304213332593E+03    0.99816E-04   -0.12408E-03 54492   0.177E-01    0.693E-02
DAV:  10    -0.304213284208E+03    0.48385E-04   -0.27880E-04 33432   0.106E-01
  37 F= -.30421328E+03 E0= -.30421243E+03  d E =-.146604E-01
       N       E                     dE             d eps       ncg     rms          rms(c)
DAV:   1    -0.304213235008E+03    0.97585E-04   -0.33714E+00 41280   0.623E+00    0.914E-01
DAV:   2    -0.304229170491E+03   -0.15935E-01   -0.28576E-01 69060   0.246E+00    0.710E-01
DAV:   3    -0.304229675275E+03   -0.50478E-03   -0.11254E-01 69828   0.160E+00    0.843E-01
DAV:   4    -0.304225032983E+03    0.46423E-02   -0.67903E-02 66984   0.133E+00    0.526E-01
DAV:   5    -0.304221929511E+03    0.31035E-02   -0.27574E-02 75336   0.774E-01    0.298E-01
DAV:   6    -0.304221922095E+03    0.74161E-05   -0.17379E-02 74964   0.586E-01    0.319E-01
DAV:   7    -0.304221155496E+03    0.76660E-03   -0.96269E-03 66348   0.482E-01    0.177E-01
DAV:   8    -0.304220983978E+03    0.17152E-03   -0.34227E-03 65352   0.267E-01    0.126E-01
DAV:   9    -0.304220842339E+03    0.14164E-03   -0.13110E-03 56244   0.158E-01    0.811E-02
DAV:  10    -0.304220835236E+03    0.71033E-05   -0.47264E-04 40356   0.125E-01
  38 F= -.30422084E+03 E0= -.30421988E+03  d E =-.755103E-02
       N       E                     dE             d eps       ncg     rms          rms(c)
DAV:   1    -0.304219454532E+03    0.13878E-02   -0.87459E-01 41280   0.318E+00    0.462E-01
DAV:   2    -0.304223525687E+03   -0.40712E-02   -0.72536E-02 67956   0.123E+00    0.356E-01
DAV:   3    -0.304223930670E+03   -0.40498E-03   -0.30604E-02 70164   0.839E-01    0.450E-01
DAV:   4    -0.304222304033E+03    0.16266E-02   -0.16725E-02 59880   0.658E-01    0.236E-01
DAV:   5    -0.304221782690E+03    0.52134E-03   -0.75379E-03 70740   0.403E-01    0.184E-01
DAV:   6    -0.304221740142E+03    0.42548E-04   -0.53060E-03 63960   0.343E-01    0.176E-01
DAV:   7    -0.304221493042E+03    0.24710E-03   -0.20397E-03 59832   0.239E-01    0.797E-02
DAV:   8    -0.304221463210E+03    0.29832E-04   -0.81430E-04 50820   0.127E-01
  39 F= -.30422146E+03 E0= -.30422047E+03  d E =-.817900E-02
       N       E                     dE             d eps       ncg     rms          rms(c)
DAV:   1    -0.304222883896E+03   -0.13909E-02   -0.48870E-01 42192   0.220E+00    0.206E-01
DAV:   2    -0.304225432734E+03   -0.25488E-02   -0.31698E-02 68760   0.891E-01    0.254E-01
DAV:   3    -0.304225129916E+03    0.30282E-03   -0.83360E-03 71520   0.467E-01    0.197E-01
DAV:   4    -0.304224854225E+03    0.27569E-03   -0.31584E-03 61560   0.270E-01    0.136E-01
DAV:   5    -0.304224710025E+03    0.14420E-03   -0.15695E-03 56352   0.190E-01    0.106E-01
DAV:   6    -0.304224712238E+03   -0.22135E-05   -0.12571E-03 54828   0.181E-01    0.100E-01
DAV:   7    -0.304224659635E+03    0.52604E-04   -0.11363E-03 53592   0.173E-01    0.793E-02
DAV:   8    -0.304224591626E+03    0.68009E-04   -0.52127E-04 42852   0.136E-01
  40 F= -.30422459E+03 E0= -.30422360E+03  d E =-.312842E-02
       N       E                     dE             d eps       ncg     rms          rms(c)
DAV:   1    -0.304214165094E+03    0.10495E-01   -0.43980E+00 42168   0.663E+00    0.592E-01
DAV:   2    -0.304238031744E+03   -0.23867E-01   -0.28078E-01 68436   0.265E+00    0.769E-01
DAV:   3    -0.304235197597E+03    0.28341E-02   -0.74342E-02 71988   0.141E+00    0.564E-01
DAV:   4    -0.304232684848E+03    0.25127E-02   -0.26394E-02 68304   0.777E-01    0.351E-01
DAV:   5    -0.304231449845E+03    0.12350E-02   -0.12160E-02 65940   0.477E-01    0.255E-01
DAV:   6    -0.304231858934E+03   -0.40909E-03   -0.10630E-02 62784   0.475E-01    0.307E-01
DAV:   7    -0.304231144999E+03    0.71394E-03   -0.83719E-03 68376   0.431E-01    0.192E-01
DAV:   8    -0.304230719950E+03    0.42505E-03   -0.31016E-03 63000   0.261E-01    0.949E-02
DAV:   9    -0.304230647480E+03    0.72470E-04   -0.98650E-04 53124   0.147E-01
  41 F= -.30423065E+03 E0= -.30422969E+03  d E =-.918427E-02
       N       E                     dE             d eps       ncg     rms          rms(c)
DAV:   1    -0.304232976186E+03   -0.22562E-02   -0.87350E-02 56220   0.129E+00    0.273E-01
DAV:   2    -0.304233722932E+03   -0.74675E-03   -0.17049E-02 75420   0.641E-01    0.287E-01
DAV:   3    -0.304233370219E+03    0.35271E-03   -0.15630E-02 69720   0.574E-01    0.287E-01
DAV:   4    -0.304232778653E+03    0.59157E-03   -0.75258E-03 58848   0.418E-01    0.153E-01
DAV:   5    -0.304232549056E+03    0.22960E-03   -0.27836E-03 64716   0.223E-01    0.963E-02
DAV:   6    -0.304232486732E+03    0.62324E-04   -0.14466E-03 55896   0.182E-01    0.821E-02
DAV:   7    -0.304232435847E+03    0.50885E-04   -0.60739E-04 44700   0.136E-01
  42 F= -.30423244E+03 E0= -.30423150E+03  d E =-.178837E-02
       N       E                     dE             d eps       ncg     rms          rms(c)
DAV:   1    -0.304238214668E+03   -0.57279E-02   -0.65946E-01 54648   0.353E+00    0.782E-01
DAV:   2    -0.304240841185E+03   -0.26265E-02   -0.11906E-01 74556   0.158E+00    0.625E-01
DAV:   3    -0.304238430109E+03    0.24111E-02   -0.93649E-02 70716   0.117E+00    0.633E-01
DAV:   4    -0.304237249845E+03    0.11803E-02   -0.54283E-02 64056   0.111E+00    0.546E-01
DAV:   5    -0.304234104000E+03    0.31458E-02   -0.22679E-02 71952   0.707E-01    0.249E-01
DAV:   6    -0.304233758201E+03    0.34580E-03   -0.11568E-02 71472   0.495E-01    0.235E-01
DAV:   7    -0.304233431738E+03    0.32646E-03   -0.58595E-03 67140   0.348E-01    0.144E-01
DAV:   8    -0.304233316111E+03    0.11563E-03   -0.21948E-03 62316   0.204E-01    0.972E-02
DAV:   9    -0.304233258963E+03    0.57148E-04   -0.55279E-04 44580   0.129E-01
  43 F= -.30423326E+03 E0= -.30423235E+03  d E =-.261148E-02
       N       E                     dE             d eps       ncg     rms          rms(c)
DAV:   1    -0.304238908835E+03   -0.55927E-02   -0.16522E-01 57768   0.202E+00    0.555E-01
DAV:   2    -0.304239274681E+03   -0.36585E-03   -0.46572E-02 77172   0.911E-01    0.443E-01
DAV:   3    -0.304237836698E+03    0.14380E-02   -0.43338E-02 68112   0.772E-01    0.426E-01
DAV:   4    -0.304237056743E+03    0.77995E-03   -0.23139E-02 59352   0.746E-01    0.366E-01
DAV:   5    -0.304235690835E+03    0.13659E-02   -0.11073E-02 67944   0.525E-01    0.158E-01
DAV:   6    -0.304235553873E+03    0.13696E-03   -0.51058E-03 66552   0.316E-01    0.152E-01
DAV:   7    -0.304235423683E+03    0.13019E-03   -0.31640E-03 60480   0.268E-01    0.106E-01
DAV:   8    -0.304235356044E+03    0.67639E-04   -0.11797E-03 53988   0.171E-01    0.690E-02
DAV:   9    -0.304235299500E+03    0.56544E-04   -0.23341E-04 31632   0.106E-01
  44 F= -.30423530E+03 E0= -.30423439E+03  d E =-.204054E-02
       N       E                     dE             d eps       ncg     rms          rms(c)
DAV:   1    -0.304236060794E+03   -0.70475E-03   -0.34566E-02 57960   0.922E-01    0.235E-01
DAV:   2    -0.304236176415E+03   -0.11562E-03   -0.80701E-03 75552   0.412E-01    0.200E-01
DAV:   3    -0.304235993254E+03    0.18316E-03   -0.86734E-03 63324   0.385E-01    0.205E-01
DAV:   4    -0.304235743490E+03    0.24976E-03   -0.42146E-03 58788   0.335E-01    0.136E-01
DAV:   5    -0.304235546874E+03    0.19662E-03   -0.19548E-03 60168   0.204E-01    0.820E-02
DAV:   6    -0.304235495936E+03    0.50937E-04   -0.97297E-04 53436   0.150E-01
  45 F= -.30423550E+03 E0= -.30423459E+03  d E =-.223697E-02
       N       E                     dE             d eps       ncg     rms          rms(c)
DAV:   1    -0.304236177241E+03   -0.63037E-03   -0.45254E-02 41700   0.689E-01    0.740E-02
DAV:   2    -0.304236588465E+03   -0.41122E-03   -0.44788E-03 69372   0.354E-01    0.136E-01
DAV:   3    -0.304236438042E+03    0.15042E-03   -0.16775E-03 55368   0.219E-01    0.772E-02
DAV:   4    -0.304236395254E+03    0.42788E-04   -0.38740E-04 38028   0.111E-01
  46 F= -.30423640E+03 E0= -.30423549E+03  d E =-.899318E-03
       N       E                     dE             d eps       ncg     rms          rms(c)
DAV:   1    -0.304237021683E+03   -0.58364E-03   -0.40334E-01 41580   0.202E+00    0.192E-01
DAV:   2    -0.304239624227E+03   -0.26025E-02   -0.30827E-02 68820   0.940E-01    0.315E-01
DAV:   3    -0.304238899577E+03    0.72465E-03   -0.89860E-03 67764   0.516E-01    0.173E-01
DAV:   4    -0.304238685054E+03    0.21452E-03   -0.27025E-03 62772   0.256E-01    0.120E-01
DAV:   5    -0.304238613829E+03    0.71226E-04   -0.14782E-03 55848   0.194E-01    0.114E-01
DAV:   6    -0.304238540051E+03    0.73778E-04   -0.11774E-03 54216   0.169E-01    0.795E-02
DAV:   7    -0.304238525429E+03    0.14622E-04   -0.73804E-04 47844   0.146E-01
  47 F= -.30423853E+03 E0= -.30423761E+03  d E =-.302949E-02
       N       E                     dE             d eps       ncg     rms          rms(c)
DAV:   1    -0.304233757756E+03    0.47823E-02   -0.16070E+00 41580   0.405E+00    0.373E-01
DAV:   2    -0.304245465479E+03   -0.11708E-01   -0.12458E-01 68256   0.194E+00    0.681E-01
DAV:   3    -0.304241632287E+03    0.38332E-02   -0.38611E-02 68172   0.110E+00    0.307E-01
DAV:   4    -0.304241160009E+03    0.47228E-03   -0.10125E-02 64368   0.495E-01    0.246E-01
DAV:   5    -0.304240722053E+03    0.43796E-03   -0.56477E-03 62208   0.373E-01    0.197E-01
DAV:   6    -0.304240541028E+03    0.18102E-03   -0.36976E-03 62016   0.273E-01    0.150E-01
DAV:   7    -0.304240547446E+03   -0.64185E-05   -0.30109E-03 64392   0.274E-01    0.149E-01
DAV:   8    -0.304240302410E+03    0.24504E-03   -0.20044E-03 60276   0.210E-01    0.657E-02
DAV:   9    -0.304240244728E+03    0.57682E-04   -0.26549E-04 33540   0.101E-01
  48 F= -.30424024E+03 E0= -.30423934E+03  d E =-.474879E-02
       N       E                     dE             d eps       ncg     rms          rms(c)
DAV:   1    -0.304240407725E+03   -0.10531E-03   -0.18776E-01 41364   0.146E+00    0.152E-01
DAV:   2    -0.304241810526E+03   -0.14028E-02   -0.16699E-02 68784   0.641E-01    0.204E-01
DAV:   3    -0.304241630786E+03    0.17974E-03   -0.53792E-03 68676   0.387E-01    0.159E-01
DAV:   4    -0.304241437647E+03    0.19314E-03   -0.17479E-03 55920   0.219E-01    0.901E-02
DAV:   5    -0.304241378375E+03    0.59272E-04   -0.87865E-04 50124   0.146E-01
  49 F= -.30424138E+03 E0= -.30424049E+03  d E =-.113365E-02
       N       E                     dE             d eps       ncg     rms          rms(c)
DAV:   1    -0.304233957491E+03    0.74802E-02   -0.16847E+00 41280   0.436E+00    0.439E-01
DAV:   2    -0.304246082443E+03   -0.12125E-01   -0.14222E-01 68148   0.198E+00    0.581E-01
DAV:   3    -0.304244685361E+03    0.13971E-02   -0.43529E-02 68232   0.113E+00    0.426E-01
DAV:   4    -0.304243207703E+03    0.14777E-02   -0.13567E-02 63840   0.628E-01    0.247E-01
DAV:   5    -0.304242976580E+03    0.23112E-03   -0.77774E-03 61140   0.423E-01    0.238E-01
DAV:   6    -0.304242687138E+03    0.28944E-03   -0.48042E-03 62388   0.326E-01    0.151E-01
DAV:   7    -0.304242564770E+03    0.12237E-03   -0.35055E-03 68712   0.252E-01    0.115E-01
DAV:   8    -0.304242447668E+03    0.11710E-03   -0.16657E-03 60348   0.185E-01    0.760E-02
DAV:   9    -0.304242385916E+03    0.61752E-04   -0.41851E-04 39576   0.114E-01
  50 F= -.30424239E+03 E0= -.30424162E+03  d E =-.214119E-02
