<?xml version="1.0" encoding="ISO-8859-1"?>
<modeling>
 <generator>
  <i name="program" type="string">vasp </i>
  <i name="version" type="string">5.4.4.18Apr17-6-g9f103f2a35  </i>
  <i name="subversion" type="string">(build Aug 09 2018 16:20:53) complex            parallel </i>
  <i name="platform" type="string">LinuxIFC </i>
  <i name="date" type="string">2020 04 29 </i>
  <i name="time" type="string">20:42:46 </i>
 </generator>
 <incar>
  <i type="string" name="SYSTEM"> Nb - Mo - Ta - Ti - V SQS</i>
  <i type="string" name="PREC">normal</i>
  <i type="int" name="ICHARG">     0</i>
  <i type="int" name="IBRION">     2</i>
  <i type="int" name="NSW">    50</i>
  <i type="int" name="ISIF">     3</i>
  <i name="ENCUT">    600.00000000</i>
  <i type="string" name="LREAL"> Auto</i>
  <i type="int" name="ISMEAR">     1</i>
  <i name="SIGMA">      0.20000000</i>
  <v type="int" name="KPOINT_BSE">    -1     0     0     0</v>
  <i type="string" name="GGA"> PS</i>
 </incar>
 <structure name="primitive_cell" >
  <crystal>
   <varray name="basis" >
    <v>      -3.16000000      -3.16000000      -3.16000000 </v>
    <v>       1.58000000       1.58000000      -7.90000000 </v>
    <v>       7.90000000      -7.90000000      -1.58000000 </v>
   </varray>
   <i name="volume">    473.31744000 </i>
   <varray name="rec_basis" >
    <v>      -0.13713080      -0.12658228      -0.05274262 </v>
    <v>       0.04219409       0.06329114      -0.10548523 </v>
    <v>       0.06329114      -0.06329114       0.00000000 </v>
   </varray>
  </crystal>
  <varray name="positions" >
   <v>      -0.03333333      -0.06666667       0.40000000 </v>
   <v>       0.30000000      -0.40000000       0.40000000 </v>
   <v>      -0.10000000      -0.20000000       0.20000000 </v>
   <v>       0.06666667       0.13333333       0.20000000 </v>
   <v>       0.46666667      -0.06666667       0.40000000 </v>
   <v>      -0.13333333      -0.26666667      -0.40000000 </v>
   <v>       0.03333333       0.06666667      -0.40000000 </v>
   <v>      -0.36666667       0.26666667       0.40000000 </v>
   <v>       0.40000000      -0.20000000       0.20000000 </v>
   <v>      -0.20000000      -0.40000000       0.40000000 </v>
   <v>      -0.43333333       0.13333333       0.20000000 </v>
   <v>       0.36666667      -0.26666667      -0.40000000 </v>
   <v>       0.13333333       0.26666667       0.40000000 </v>
   <v>      -0.46666667       0.06666667      -0.40000000 </v>
   <v>       0.23333333       0.46666667       0.20000000 </v>
   <v>       0.20000000       0.40000000      -0.40000000 </v>
   <v>       0.00000000       0.00000000       0.00000000 </v>
   <v>      -0.06666667      -0.13333333      -0.20000000 </v>
   <v>      -0.30000000       0.40000000      -0.40000000 </v>
   <v>      -0.26666667       0.46666667       0.20000000 </v>
   <v>       0.33333333      -0.33333333       0.00000000 </v>
   <v>      -0.50000000       0.00000000       0.00000000 </v>
   <v>       0.26666667      -0.46666667      -0.20000000 </v>
   <v>      -0.33333333       0.33333333       0.00000000 </v>
   <v>      -0.40000000       0.20000000      -0.20000000 </v>
   <v>      -0.16666667      -0.33333333       0.00000000 </v>
   <v>      -0.23333333      -0.46666667      -0.20000000 </v>
   <v>       0.16666667       0.33333333       0.00000000 </v>
   <v>       0.10000000       0.20000000      -0.20000000 </v>
  </varray>
 </structure>
 <varray name="primitive_index" >
  <v type="int" >        1 </v>
  <v type="int" >       17 </v>
  <v type="int" >        7 </v>
  <v type="int" >       23 </v>
  <v type="int" >       19 </v>
  <v type="int" >       18 </v>
  <v type="int" >        6 </v>
  <v type="int" >        2 </v>
  <v type="int" >       16 </v>
  <v type="int" >        8 </v>
  <v type="int" >       15 </v>
  <v type="int" >       11 </v>
  <v type="int" >       12 </v>
  <v type="int" >       27 </v>
  <v type="int" >       29 </v>
  <v type="int" >       22 </v>
  <v type="int" >        4 </v>
  <v type="int" >       14 </v>
  <v type="int" >       25 </v>
  <v type="int" >        9 </v>
  <v type="int" >       28 </v>
  <v type="int" >        3 </v>
  <v type="int" >       21 </v>
  <v type="int" >       10 </v>
  <v type="int" >       26 </v>
  <v type="int" >       13 </v>
  <v type="int" >       24 </v>
  <v type="int" >       20 </v>
  <v type="int" >        5 </v>
 </varray>
 <kpoints>
  <generation param="Gamma">
   <v type="int" name="divisions">       7        7        7 </v>
   <v name="usershift">      0.00000000       0.00000000       0.00000000 </v>
   <v name="genvec1">      0.14285714       0.00000000       0.00000000 </v>
   <v name="genvec2">     -0.00000000       0.14285714       0.00000000 </v>
   <v name="genvec3">      0.00000000       0.00000000       0.14285714 </v>
   <v name="shift">      0.00000000       0.00000000       0.00000000 </v>
  </generation>
  <varray name="kpointlist" >
   <v>       0.00000000       0.00000000       0.00000000 </v>
   <v>       0.14285714       0.00000000      -0.00000000 </v>
   <v>       0.28571429       0.00000000       0.00000000 </v>
   <v>       0.42857143       0.00000000      -0.00000000 </v>
   <v>      -0.00000000       0.14285714       0.00000000 </v>
   <v>       0.14285714       0.14285714      -0.00000000 </v>
   <v>       0.28571429       0.14285714       0.00000000 </v>
   <v>       0.42857143       0.14285714      -0.00000000 </v>
   <v>      -0.42857143       0.14285714       0.00000000 </v>
   <v>      -0.28571429       0.14285714       0.00000000 </v>
   <v>      -0.14285714       0.14285714       0.00000000 </v>
   <v>       0.00000000       0.28571429      -0.00000000 </v>
   <v>       0.14285714       0.28571429      -0.00000000 </v>
   <v>       0.28571429       0.28571429      -0.00000000 </v>
   <v>       0.42857143       0.28571429      -0.00000000 </v>
   <v>      -0.42857143       0.28571429      -0.00000000 </v>
   <v>      -0.28571429       0.28571429      -0.00000000 </v>
   <v>      -0.14285714       0.28571429      -0.00000000 </v>
   <v>      -0.00000000       0.42857143      -0.00000000 </v>
   <v>       0.14285714       0.42857143       0.00000000 </v>
   <v>       0.28571429       0.42857143       0.00000000 </v>
   <v>       0.42857143       0.42857143      -0.00000000 </v>
   <v>      -0.42857143       0.42857143       0.00000000 </v>
   <v>      -0.28571429       0.42857143      -0.00000000 </v>
   <v>      -0.14285714       0.42857143      -0.00000000 </v>
   <v>       0.00000000       0.00000000       0.14285714 </v>
   <v>       0.14285714       0.00000000       0.14285714 </v>
   <v>       0.28571429       0.00000000       0.14285714 </v>
   <v>       0.42857143       0.00000000       0.14285714 </v>
   <v>      -0.42857143       0.00000000       0.14285714 </v>
   <v>      -0.28571429       0.00000000       0.14285714 </v>
   <v>      -0.14285714      -0.00000000       0.14285714 </v>
   <v>      -0.00000000       0.14285714       0.14285714 </v>
   <v>       0.14285714       0.14285714       0.14285714 </v>
   <v>       0.28571429       0.14285714       0.14285714 </v>
   <v>       0.42857143       0.14285714       0.14285714 </v>
   <v>      -0.42857143       0.14285714       0.14285714 </v>
   <v>      -0.28571429       0.14285714       0.14285714 </v>
   <v>      -0.14285714       0.14285714       0.14285714 </v>
   <v>      -0.00000000       0.28571429       0.14285714 </v>
   <v>       0.14285714       0.28571429       0.14285714 </v>
   <v>       0.28571429       0.28571429       0.14285714 </v>
   <v>       0.42857143       0.28571429       0.14285714 </v>
   <v>      -0.42857143       0.28571429       0.14285714 </v>
   <v>      -0.28571429       0.28571429       0.14285714 </v>
   <v>      -0.14285714       0.28571429       0.14285714 </v>
   <v>       0.00000000       0.42857143       0.14285714 </v>
   <v>       0.14285714       0.42857143       0.14285714 </v>
   <v>       0.28571429       0.42857143       0.14285714 </v>
   <v>       0.42857143       0.42857143       0.14285714 </v>
   <v>      -0.42857143       0.42857143       0.14285714 </v>
   <v>      -0.28571429       0.42857143       0.14285714 </v>
   <v>      -0.14285714       0.42857143       0.14285714 </v>
   <v>       0.00000000      -0.42857143       0.14285714 </v>
   <v>       0.14285714      -0.42857143       0.14285714 </v>
   <v>       0.28571429      -0.42857143       0.14285714 </v>
   <v>       0.42857143      -0.42857143       0.14285714 </v>
   <v>      -0.42857143      -0.42857143       0.14285714 </v>
   <v>      -0.28571429      -0.42857143       0.14285714 </v>
   <v>      -0.14285714      -0.42857143       0.14285714 </v>
   <v>       0.00000000      -0.28571429       0.14285714 </v>
   <v>       0.14285714      -0.28571429       0.14285714 </v>
   <v>       0.28571429      -0.28571429       0.14285714 </v>
   <v>       0.42857143      -0.28571429       0.14285714 </v>
   <v>      -0.42857143      -0.28571429       0.14285714 </v>
   <v>      -0.28571429      -0.28571429       0.14285714 </v>
   <v>      -0.14285714      -0.28571429       0.14285714 </v>
   <v>       0.00000000      -0.14285714       0.14285714 </v>
   <v>       0.14285714      -0.14285714       0.14285714 </v>
   <v>       0.28571429      -0.14285714       0.14285714 </v>
   <v>       0.42857143      -0.14285714       0.14285714 </v>
   <v>      -0.42857143      -0.14285714       0.14285714 </v>
   <v>      -0.28571429      -0.14285714       0.14285714 </v>
   <v>      -0.14285714      -0.14285714       0.14285714 </v>
   <v>       0.00000000       0.00000000       0.28571429 </v>
   <v>       0.14285714       0.00000000       0.28571429 </v>
   <v>       0.28571429       0.00000000       0.28571429 </v>
   <v>       0.42857143       0.00000000       0.28571429 </v>
   <v>      -0.42857143      -0.00000000       0.28571429 </v>
   <v>      -0.28571429      -0.00000000       0.28571429 </v>
   <v>      -0.14285714      -0.00000000       0.28571429 </v>
   <v>      -0.00000000       0.14285714       0.28571429 </v>
   <v>       0.14285714       0.14285714       0.28571429 </v>
   <v>       0.28571429       0.14285714       0.28571429 </v>
   <v>       0.42857143       0.14285714       0.28571429 </v>
   <v>      -0.42857143       0.14285714       0.28571429 </v>
   <v>      -0.28571429       0.14285714       0.28571429 </v>
   <v>      -0.14285714       0.14285714       0.28571429 </v>
   <v>      -0.00000000       0.28571429       0.28571429 </v>
   <v>       0.14285714       0.28571429       0.28571429 </v>
   <v>       0.28571429       0.28571429       0.28571429 </v>
   <v>       0.42857143       0.28571429       0.28571429 </v>
   <v>      -0.42857143       0.28571429       0.28571429 </v>
   <v>      -0.28571429       0.28571429       0.28571429 </v>
   <v>      -0.14285714       0.28571429       0.28571429 </v>
   <v>       0.00000000       0.42857143       0.28571429 </v>
   <v>       0.14285714       0.42857143       0.28571429 </v>
   <v>       0.28571429       0.42857143       0.28571429 </v>
   <v>       0.42857143       0.42857143       0.28571429 </v>
   <v>      -0.42857143       0.42857143       0.28571429 </v>
   <v>      -0.28571429       0.42857143       0.28571429 </v>
   <v>      -0.14285714       0.42857143       0.28571429 </v>
   <v>      -0.00000000      -0.42857143       0.28571429 </v>
   <v>       0.14285714      -0.42857143       0.28571429 </v>
   <v>       0.28571429      -0.42857143       0.28571429 </v>
   <v>       0.42857143      -0.42857143       0.28571429 </v>
   <v>      -0.42857143      -0.42857143       0.28571429 </v>
   <v>      -0.28571429      -0.42857143       0.28571429 </v>
   <v>      -0.14285714      -0.42857143       0.28571429 </v>
   <v>       0.00000000      -0.28571429       0.28571429 </v>
   <v>       0.14285714      -0.28571429       0.28571429 </v>
   <v>       0.28571429      -0.28571429       0.28571429 </v>
   <v>       0.42857143      -0.28571429       0.28571429 </v>
   <v>      -0.42857143      -0.28571429       0.28571429 </v>
   <v>      -0.28571429      -0.28571429       0.28571429 </v>
   <v>      -0.14285714      -0.28571429       0.28571429 </v>
   <v>       0.00000000      -0.14285714       0.28571429 </v>
   <v>       0.14285714      -0.14285714       0.28571429 </v>
   <v>       0.28571429      -0.14285714       0.28571429 </v>
   <v>       0.42857143      -0.14285714       0.28571429 </v>
   <v>      -0.42857143      -0.14285714       0.28571429 </v>
   <v>      -0.28571429      -0.14285714       0.28571429 </v>
   <v>      -0.14285714      -0.14285714       0.28571429 </v>
   <v>       0.00000000       0.00000000       0.42857143 </v>
   <v>       0.14285714       0.00000000       0.42857143 </v>
   <v>       0.28571429       0.00000000       0.42857143 </v>
   <v>       0.42857143      -0.00000000       0.42857143 </v>
   <v>      -0.42857143      -0.00000000       0.42857143 </v>
   <v>      -0.28571429       0.00000000       0.42857143 </v>
   <v>      -0.14285714      -0.00000000       0.42857143 </v>
   <v>      -0.00000000       0.14285714       0.42857143 </v>
   <v>       0.14285714       0.14285714       0.42857143 </v>
   <v>       0.28571429       0.14285714       0.42857143 </v>
   <v>       0.42857143       0.14285714       0.42857143 </v>
   <v>      -0.42857143       0.14285714       0.42857143 </v>
   <v>      -0.28571429       0.14285714       0.42857143 </v>
   <v>      -0.14285714       0.14285714       0.42857143 </v>
   <v>       0.00000000       0.28571429       0.42857143 </v>
   <v>       0.14285714       0.28571429       0.42857143 </v>
   <v>       0.28571429       0.28571429       0.42857143 </v>
   <v>       0.42857143       0.28571429       0.42857143 </v>
   <v>      -0.42857143       0.28571429       0.42857143 </v>
   <v>      -0.28571429       0.28571429       0.42857143 </v>
   <v>      -0.14285714       0.28571429       0.42857143 </v>
   <v>       0.00000000       0.42857143       0.42857143 </v>
   <v>       0.14285714       0.42857143       0.42857143 </v>
   <v>       0.28571429       0.42857143       0.42857143 </v>
   <v>       0.42857143       0.42857143       0.42857143 </v>
   <v>      -0.42857143       0.42857143       0.42857143 </v>
   <v>      -0.28571429       0.42857143       0.42857143 </v>
   <v>      -0.14285714       0.42857143       0.42857143 </v>
   <v>       0.00000000      -0.42857143       0.42857143 </v>
   <v>       0.14285714      -0.42857143       0.42857143 </v>
   <v>       0.28571429      -0.42857143       0.42857143 </v>
   <v>       0.42857143      -0.42857143       0.42857143 </v>
   <v>      -0.42857143      -0.42857143       0.42857143 </v>
   <v>      -0.28571429      -0.42857143       0.42857143 </v>
   <v>      -0.14285714      -0.42857143       0.42857143 </v>
   <v>      -0.00000000      -0.28571429       0.42857143 </v>
   <v>       0.14285714      -0.28571429       0.42857143 </v>
   <v>       0.28571429      -0.28571429       0.42857143 </v>
   <v>       0.42857143      -0.28571429       0.42857143 </v>
   <v>      -0.42857143      -0.28571429       0.42857143 </v>
   <v>      -0.28571429      -0.28571429       0.42857143 </v>
   <v>      -0.14285714      -0.28571429       0.42857143 </v>
   <v>       0.00000000      -0.14285714       0.42857143 </v>
   <v>       0.14285714      -0.14285714       0.42857143 </v>
   <v>       0.28571429      -0.14285714       0.42857143 </v>
   <v>       0.42857143      -0.14285714       0.42857143 </v>
   <v>      -0.42857143      -0.14285714       0.42857143 </v>
   <v>      -0.28571429      -0.14285714       0.42857143 </v>
   <v>      -0.14285714      -0.14285714       0.42857143 </v>
  </varray>
  <varray name="weights" >
   <v>       0.00291545 </v>
   <v>       0.00583090 </v>
   <v>       0.00583090 </v>
   <v>       0.00583090 </v>
   <v>       0.00583090 </v>
   <v>       0.00583090 </v>
   <v>       0.00583090 </v>
   <v>       0.00583090 </v>
   <v>       0.00583090 </v>
   <v>       0.00583090 </v>
   <v>       0.00583090 </v>
   <v>       0.00583090 </v>
   <v>       0.00583090 </v>
   <v>       0.00583090 </v>
   <v>       0.00583090 </v>
   <v>       0.00583090 </v>
   <v>       0.00583090 </v>
   <v>       0.00583090 </v>
   <v>       0.00583090 </v>
   <v>       0.00583090 </v>
   <v>       0.00583090 </v>
   <v>       0.00583090 </v>
   <v>       0.00583090 </v>
   <v>       0.00583090 </v>
   <v>       0.00583090 </v>
   <v>       0.00583090 </v>
   <v>       0.00583090 </v>
   <v>       0.00583090 </v>
   <v>       0.00583090 </v>
   <v>       0.00583090 </v>
   <v>       0.00583090 </v>
   <v>       0.00583090 </v>
   <v>       0.00583090 </v>
   <v>       0.00583090 </v>
   <v>       0.00583090 </v>
   <v>       0.00583090 </v>
   <v>       0.00583090 </v>
   <v>       0.00583090 </v>
   <v>       0.00583090 </v>
   <v>       0.00583090 </v>
   <v>       0.00583090 </v>
   <v>       0.00583090 </v>
   <v>       0.00583090 </v>
   <v>       0.00583090 </v>
   <v>       0.00583090 </v>
   <v>       0.00583090 </v>
   <v>       0.00583090 </v>
   <v>       0.00583090 </v>
   <v>       0.00583090 </v>
   <v>       0.00583090 </v>
   <v>       0.00583090 </v>
   <v>       0.00583090 </v>
   <v>       0.00583090 </v>
   <v>       0.00583090 </v>
   <v>       0.00583090 </v>
   <v>       0.00583090 </v>
   <v>       0.00583090 </v>
   <v>       0.00583090 </v>
   <v>       0.00583090 </v>
   <v>       0.00583090 </v>
   <v>       0.00583090 </v>
   <v>       0.00583090 </v>
   <v>       0.00583090 </v>
   <v>       0.00583090 </v>
   <v>       0.00583090 </v>
   <v>       0.00583090 </v>
   <v>       0.00583090 </v>
   <v>       0.00583090 </v>
   <v>       0.00583090 </v>
   <v>       0.00583090 </v>
   <v>       0.00583090 </v>
   <v>       0.00583090 </v>
   <v>       0.00583090 </v>
   <v>       0.00583090 </v>
   <v>       0.00583090 </v>
   <v>       0.00583090 </v>
   <v>       0.00583090 </v>
   <v>       0.00583090 </v>
   <v>       0.00583090 </v>
   <v>       0.00583090 </v>
   <v>       0.00583090 </v>
   <v>       0.00583090 </v>
   <v>       0.00583090 </v>
   <v>       0.00583090 </v>
   <v>       0.00583090 </v>
   <v>       0.00583090 </v>
   <v>       0.00583090 </v>
   <v>       0.00583090 </v>
   <v>       0.00583090 </v>
   <v>       0.00583090 </v>
   <v>       0.00583090 </v>
   <v>       0.00583090 </v>
   <v>       0.00583090 </v>
   <v>       0.00583090 </v>
   <v>       0.00583090 </v>
   <v>       0.00583090 </v>
   <v>       0.00583090 </v>
   <v>       0.00583090 </v>
   <v>       0.00583090 </v>
   <v>       0.00583090 </v>
   <v>       0.00583090 </v>
   <v>       0.00583090 </v>
   <v>       0.00583090 </v>
   <v>       0.00583090 </v>
   <v>       0.00583090 </v>
   <v>       0.00583090 </v>
   <v>       0.00583090 </v>
   <v>       0.00583090 </v>
   <v>       0.00583090 </v>
   <v>       0.00583090 </v>
   <v>       0.00583090 </v>
   <v>       0.00583090 </v>
   <v>       0.00583090 </v>
   <v>       0.00583090 </v>
   <v>       0.00583090 </v>
   <v>       0.00583090 </v>
   <v>       0.00583090 </v>
   <v>       0.00583090 </v>
   <v>       0.00583090 </v>
   <v>       0.00583090 </v>
   <v>       0.00583090 </v>
   <v>       0.00583090 </v>
   <v>       0.00583090 </v>
   <v>       0.00583090 </v>
   <v>       0.00583090 </v>
   <v>       0.00583090 </v>
   <v>       0.00583090 </v>
   <v>       0.00583090 </v>
   <v>       0.00583090 </v>
   <v>       0.00583090 </v>
   <v>       0.00583090 </v>
   <v>       0.00583090 </v>
   <v>       0.00583090 </v>
   <v>       0.00583090 </v>
   <v>       0.00583090 </v>
   <v>       0.00583090 </v>
   <v>       0.00583090 </v>
   <v>       0.00583090 </v>
   <v>       0.00583090 </v>
   <v>       0.00583090 </v>
   <v>       0.00583090 </v>
   <v>       0.00583090 </v>
   <v>       0.00583090 </v>
   <v>       0.00583090 </v>
   <v>       0.00583090 </v>
   <v>       0.00583090 </v>
   <v>       0.00583090 </v>
   <v>       0.00583090 </v>
   <v>       0.00583090 </v>
   <v>       0.00583090 </v>
   <v>       0.00583090 </v>
   <v>       0.00583090 </v>
   <v>       0.00583090 </v>
   <v>       0.00583090 </v>
   <v>       0.00583090 </v>
   <v>       0.00583090 </v>
   <v>       0.00583090 </v>
   <v>       0.00583090 </v>
   <v>       0.00583090 </v>
   <v>       0.00583090 </v>
   <v>       0.00583090 </v>
   <v>       0.00583090 </v>
   <v>       0.00583090 </v>
   <v>       0.00583090 </v>
   <v>       0.00583090 </v>
   <v>       0.00583090 </v>
   <v>       0.00583090 </v>
   <v>       0.00583090 </v>
   <v>       0.00583090 </v>
   <v>       0.00583090 </v>
   <v>       0.00583090 </v>
   <v>       0.00583090 </v>
  </varray>
 </kpoints>
 <parameters>
  <separator name="general" >
   <i type="string" name="SYSTEM">Nb - Mo - Ta - Ti - V SQS</i>
   <i type="logical" name="LCOMPAT"> F  </i>
  </separator>
  <separator name="electronic" >
   <i type="string" name="PREC">normal</i>
   <i name="ENMAX">    600.00000000</i>
   <i name="ENAUG">    455.65900000</i>
   <i name="EDIFF">      0.00010000</i>
   <i type="int" name="IALGO">    38</i>
   <i type="int" name="IWAVPR">    11</i>
   <i type="int" name="NBANDS">   120</i>
   <i name="NELECT">    193.00000000</i>
   <i type="int" name="TURBO">     0</i>
   <i type="int" name="IRESTART">     0</i>
   <i type="int" name="NREBOOT">     0</i>
   <i type="int" name="NMIN">     0</i>
   <i name="EREF">      0.00000000</i>
   <separator name="electronic smearing" >
    <i type="int" name="ISMEAR">     1</i>
    <i name="SIGMA">      0.20000000</i>
    <i name="KSPACING">      0.50000000</i>
    <i type="logical" name="KGAMMA"> T  </i>
   </separator>
   <separator name="electronic projectors" >
    <i type="logical" name="LREAL"> T  </i>
    <v name="ROPT">     -0.00050000     -0.00050000     -0.00050000     -0.00050000     -0.00050000</v>
    <i type="int" name="LMAXPAW">  -100</i>
    <i type="int" name="LMAXMIX">     2</i>
    <i type="logical" name="NLSPLINE"> F  </i>
   </separator>
   <separator name="electronic startup" >
    <i type="int" name="ISTART">     0</i>
    <i type="int" name="ICHARG">     0</i>
    <i type="int" name="INIWAV">     1</i>
   </separator>
   <separator name="electronic spin" >
    <i type="int" name="ISPIN">     1</i>
    <i type="logical" name="LNONCOLLINEAR"> F  </i>
    <v name="MAGMOM">      1.00000000      1.00000000      1.00000000      1.00000000      1.00000000      1.00000000      1.00000000      1.00000000      1.00000000      1.00000000      1.00000000      1.00000000      1.00000000      1.00000000      1.00000000      1.00000000      1.00000000      1.00000000      1.00000000      1.00000000
      1.00000000      1.00000000      1.00000000      1.00000000      1.00000000      1.00000000      1.00000000      1.00000000      1.00000000</v>
    <i name="NUPDOWN">     -1.00000000</i>
    <i type="logical" name="LSORBIT"> F  </i>
    <v name="SAXIS">      0.00000000      0.00000000      1.00000000</v>
    <i type="logical" name="LSPIRAL"> F  </i>
    <v name="QSPIRAL">      0.00000000      0.00000000      0.00000000</v>
    <i type="logical" name="LZEROZ"> F  </i>
   </separator>
   <separator name="electronic exchange-correlation" >
    <i type="logical" name="LASPH"> F  </i>
    <i type="logical" name="LMETAGGA"> F  </i>
   </separator>
   <separator name="electronic convergence" >
    <i type="int" name="NELM">    60</i>
    <i type="int" name="NELMDL">    -5</i>
    <i type="int" name="NELMIN">     2</i>
    <i name="ENINI">    600.00000000</i>
    <separator name="electronic convergence detail" >
     <i type="logical" name="LDIAG"> T  </i>
     <i type="logical" name="LSUBROT"> F  </i>
     <i name="WEIMIN">      0.00100000</i>
     <i name="EBREAK">      0.00000021</i>
     <i name="DEPER">      0.30000000</i>
     <i type="int" name="NRMM">     4</i>
     <i name="TIME">      0.40000000</i>
    </separator>
   </separator>
   <separator name="electronic mixer" >
    <i name="AMIX">      0.40000000</i>
    <i name="BMIX">      1.00000000</i>
    <i name="AMIN">      0.10000000</i>
    <i name="AMIX_MAG">      1.60000000</i>
    <i name="BMIX_MAG">      1.00000000</i>
    <separator name="electronic mixer details" >
     <i type="int" name="IMIX">     4</i>
     <i type="logical" name="MIXFIRST"> F  </i>
     <i type="int" name="MAXMIX">   -45</i>
     <i name="WC">    100.00000000</i>
     <i type="int" name="INIMIX">     1</i>
     <i type="int" name="MIXPRE">     1</i>
     <i type="int" name="MREMOVE">     5</i>
    </separator>
   </separator>
   <separator name="electronic dipolcorrection" >
    <i type="logical" name="LDIPOL"> F  </i>
    <i type="logical" name="LMONO"> F  </i>
    <i type="int" name="IDIPOL">     0</i>
    <i name="EPSILON">      1.00000000</i>
    <v name="DIPOL">   -100.00000000   -100.00000000   -100.00000000</v>
    <i name="EFIELD">      0.00000000</i>
   </separator>
  </separator>
  <separator name="grids" >
   <i type="int" name="NGX">    36</i>
   <i type="int" name="NGY">    50</i>
   <i type="int" name="NGZ">    70</i>
   <i type="int" name="NGXF">    72</i>
   <i type="int" name="NGYF">   100</i>
   <i type="int" name="NGZF">   140</i>
   <i type="logical" name="ADDGRID"> F  </i>
  </separator>
  <separator name="ionic" >
   <i type="int" name="NSW">    50</i>
   <i type="int" name="IBRION">     2</i>
   <i type="int" name="MDALGO">     0</i>
   <i type="int" name="ISIF">     3</i>
   <i name="PSTRESS">      0.00000000</i>
   <i name="EDIFFG">      0.00100000</i>
   <i type="int" name="NFREE">     1</i>
   <i name="POTIM">      0.50000000</i>
   <i name="SMASS">     -3.00000000</i>
   <i name="SCALEE">      1.00000000</i>
  </separator>
  <separator name="ionic md" >
   <i name="TEBEG">      0.00010000</i>
   <i name="TEEND">      0.00010000</i>
   <i type="int" name="NBLOCK">     1</i>
   <i type="int" name="KBLOCK">    50</i>
   <i type="int" name="NPACO">   256</i>
   <i name="APACO">     16.00000000</i>
  </separator>
  <separator name="symmetry" >
   <i type="int" name="ISYM">     2</i>
   <i name="SYMPREC">      0.00001000</i>
  </separator>
  <separator name="dos" >
   <i type="int" name="LORBIT">     0</i>
   <v name="RWIGS">     -1.00000000     -1.00000000     -1.00000000     -1.00000000     -1.00000000</v>
   <i type="int" name="NEDOS">   301</i>
   <i name="EMIN">     10.00000000</i>
   <i name="EMAX">    -10.00000000</i>
   <i name="EFERMI">      0.00000000</i>
  </separator>
  <separator name="writing" >
   <i type="int" name="NWRITE">     2</i>
   <i type="logical" name="LWAVE"> T  </i>
   <i type="logical" name="LDOWNSAMPLE"> F  </i>
   <i type="logical" name="LCHARG"> T  </i>
   <i type="logical" name="LPARD"> F  </i>
   <i type="logical" name="LVTOT"> F  </i>
   <i type="logical" name="LVHAR"> F  </i>
   <i type="logical" name="LELF"> F  </i>
   <i type="logical" name="LOPTICS"> F  </i>
   <v name="STM">      0.00000000      0.00000000      0.00000000      0.00000000      0.00000000      0.00000000      0.00000000</v>
  </separator>
  <separator name="performance" >
   <i type="int" name="NPAR">    12</i>
   <i type="int" name="NSIM">     4</i>
   <i type="int" name="NBLK">    -1</i>
   <i type="logical" name="LPLANE"> T  </i>
   <i type="logical" name="LSCALAPACK"> T  </i>
   <i type="logical" name="LSCAAWARE"> F  </i>
   <i type="logical" name="LSCALU"> F  </i>
   <i type="logical" name="LASYNC"> F  </i>
   <i type="logical" name="LORBITALREAL"> F  </i>
  </separator>
  <separator name="miscellaneous" >
   <i type="int" name="IDIOT">     3</i>
   <i type="int" name="ISPECIAL">     0</i>
   <i type="logical" name="LMUSIC"> F  </i>
   <v name="POMASS">     92.91000000     95.94000000    180.94800000     47.88000000     50.94100000</v>
   <v name="DARWINR">      0.00000000      0.00000000      0.00000000      0.00000000      0.00000000</v>
   <v name="DARWINV">      1.00000000      1.00000000      1.00000000      1.00000000      1.00000000</v>
   <i type="logical" name="LCORR"> T  </i>
  </separator>
  <i type="logical" name="GGA_COMPAT"> T  </i>
  <i type="logical" name="LBERRY"> F  </i>
  <i type="int" name="ICORELEVEL">     0</i>
  <i type="logical" name="LDAU"> F  </i>
  <i type="int" name="I_CONSTRAINED_M">     0</i>
  <separator name="electronic exchange-correlation" >
   <i type="string" name="GGA">PS</i>
   <i type="int" name="VOSKOWN">     0</i>
   <i type="logical" name="LHFCALC"> F  </i>
   <i type="string" name="PRECFOCK"></i>
   <i type="logical" name="LSYMGRAD"> F  </i>
   <i type="logical" name="LHFONE"> F  </i>
   <i type="logical" name="LRHFCALC"> F  </i>
   <i type="logical" name="LTHOMAS"> F  </i>
   <i type="logical" name="LMODELHF"> F  </i>
   <i name="ENCUT4O">     -1.00000000</i>
   <i type="int" name="EXXOEP">     0</i>
   <i type="int" name="FOURORBIT">     0</i>
   <i name="AEXX">      0.00000000</i>
   <i name="HFALPHA">      0.00000000</i>
   <i name="MCALPHA">      0.00000000</i>
   <i name="ALDAX">      1.00000000</i>
   <i name="AGGAX">      1.00000000</i>
   <i name="ALDAC">      1.00000000</i>
   <i name="AGGAC">      1.00000000</i>
   <i type="int" name="NKREDX">     1</i>
   <i type="int" name="NKREDY">     1</i>
   <i type="int" name="NKREDZ">     1</i>
   <i type="logical" name="SHIFTRED"> F  </i>
   <i type="logical" name="ODDONLY"> F  </i>
   <i type="logical" name="EVENONLY"> F  </i>
   <i type="int" name="LMAXFOCK">     0</i>
   <i type="int" name="NMAXFOCKAE">     0</i>
   <i type="logical" name="LFOCKAEDFT"> F  </i>
   <i name="HFSCREEN">      0.00000000</i>
   <i name="HFSCREENC">      0.00000000</i>
   <i type="int" name="NBANDSGWLOW">     0</i>
  </separator>
  <separator name="vdW DFT" >
   <i type="logical" name="LUSE_VDW"> F  </i>
   <i name="Zab_VDW">     -0.84910000</i>
   <i name="PARAM1">      0.12340000</i>
   <i name="PARAM2">      1.00000000</i>
   <i name="PARAM3">      0.00000000</i>
  </separator>
  <separator name="model GW" >
   <i type="int" name="MODEL_GW">     0</i>
   <i name="MODEL_EPS0">      9.79277462</i>
   <i name="MODEL_ALPHA">      1.00000000</i>
  </separator>
  <separator name="linear response parameters" >
   <i type="logical" name="LEPSILON"> F  </i>
   <i type="logical" name="LRPA"> F  </i>
   <i type="logical" name="LNABLA"> F  </i>
   <i type="logical" name="LVEL"> F  </i>
   <i type="int" name="KINTER">     0</i>
   <i name="CSHIFT">      0.10000000</i>
   <i name="OMEGAMAX">     -1.00000000</i>
   <i name="DEG_THRESHOLD">      0.00200000</i>
   <i name="RTIME">     -0.10000000</i>
   <i name="WPLASMAI">      0.00000000</i>
   <v name="DFIELD">      0.00000000      0.00000000      0.00000000</v>
   <v name="WPLASMA">      0.00000000      0.00000000      0.00000000      0.00000000      0.00000000      0.00000000      0.00000000      0.00000000      0.00000000</v>
  </separator>
  <separator name="orbital magnetization" >
   <i type="logical" name="NUCIND"> F  </i>
   <v name="MAGPOS">      0.00000000      0.00000000      0.00000000</v>
   <i type="logical" name="LNICSALL"> T  </i>
   <i type="logical" name="ORBITALMAG"> F  </i>
   <i type="logical" name="LMAGBLOCH"> F  </i>
   <i type="logical" name="LCHIMAG"> F  </i>
   <i type="logical" name="LGAUGE"> T  </i>
   <i type="int" name="MAGATOM">     0</i>
   <v name="MAGDIPOL">      0.00000000      0.00000000      0.00000000</v>
   <v name="AVECCONST">      0.00000000      0.00000000      0.00000000</v>
  </separator>
  <separator name="response functions" >
   <i type="logical" name="LADDER"> F  </i>
   <i type="logical" name="LRPAFORCE"> F  </i>
   <i type="logical" name="LFXC"> F  </i>
   <i type="logical" name="LHARTREE"> T  </i>
   <i type="int" name="IBSE">     0</i>
   <v type="int" name="KPOINT">    -1     0     0     0</v>
   <i type="logical" name="LTCTE"> F  </i>
   <i type="logical" name="LTETE"> F  </i>
   <i type="logical" name="LTRIPLET"> F  </i>
   <i type="logical" name="LFXCEPS"> F  </i>
   <i type="logical" name="LFXHEG"> F  </i>
   <i type="int" name="NATURALO">     2</i>
   <i type="logical" name="L2ORDER"> F  </i>
   <i type="logical" name="LMP2LT"> F  </i>
   <i type="logical" name="LUSEW"> F  </i>
   <i name="ENCUTGW">     -2.00000000</i>
   <i name="ENCUTGWSOFT">     -2.00000000</i>
   <i name="ENCUTLF">     -1.00000000</i>
   <i type="int" name="LMAXMP2">    -1</i>
   <i name="SCISSOR">      0.00000000</i>
   <i type="int" name="NOMEGA">     0</i>
   <i type="int" name="NOMEGAR">     0</i>
   <i type="int" name="NBANDSGW">    -1</i>
   <i type="int" name="NBANDSO">    -1</i>
   <i type="int" name="NBANDSV">    -1</i>
   <i type="int" name="NELM">     1</i>
   <i type="int" name="NELMHF">     1</i>
   <i type="int" name="DIM">     3</i>
   <i type="int" name="ANTIRES">     0</i>
   <i name="OMEGAMAX">    -30.00000000</i>
   <i name="OMEGAMIN">    -30.00000000</i>
   <i name="OMEGATL">   -200.00000000</i>
   <i type="int" name="OMEGAGRID">   140</i>
   <i name="CSHIFT">     -0.10000000</i>
   <i type="logical" name="SELFENERGY"> F  </i>
   <i type="logical" name="LSPECTRAL"> F  </i>
   <i type="logical" name="LSPECTRALGW"> F  </i>
   <i type="logical" name="LSINGLES"> F  </i>
   <i type="logical" name="LFERMIGW"> F  </i>
   <i type="logical" name="ODDONLYGW"> F  </i>
   <i type="logical" name="EVENONLYGW"> F  </i>
   <i type="int" name="NKREDLFX">     1</i>
   <i type="int" name="NKREDLFY">     1</i>
   <i type="int" name="NKREDLFZ">     1</i>
   <i type="int" name="MAXMEM">  2800</i>
   <i type="int" name="TELESCOPE">     0</i>
   <i type="int" name="TAUPAR">     1</i>
   <i type="int" name="OMEGAPAR">    -1</i>
   <i name="LAMBDA">      1.00000000</i>
  </separator>
  <separator name="External order field" >
   <i name="OFIELD_KAPPA">      0.00000000</i>
   <v name="OFIELD_K">      0.00000000      0.00000000      0.00000000</v>
   <i name="OFIELD_Q6_NEAR">      0.00000000</i>
   <i name="OFIELD_Q6_FAR">      0.00000000</i>
   <i name="OFIELD_A">      0.00000000</i>
  </separator>
  <separator name="solvation model" >
   <i type="logical" name="LSOL"> F  </i>
  </separator>
 </parameters>
 <atominfo>
  <atoms>      29 </atoms>
  <types>       5 </types>
  <array name="atoms" >
   <dimension dim="1">ion</dimension>
   <field type="string">element</field>
   <field type="int">atomtype</field>
   <set>
    <rc><c>Nb</c><c>   1</c></rc>
    <rc><c>Nb</c><c>   1</c></rc>
    <rc><c>Nb</c><c>   1</c></rc>
    <rc><c>Nb</c><c>   1</c></rc>
    <rc><c>Nb</c><c>   1</c></rc>
    <rc><c>Nb</c><c>   1</c></rc>
    <rc><c>Mo</c><c>   2</c></rc>
    <rc><c>Mo</c><c>   2</c></rc>
    <rc><c>Mo</c><c>   2</c></rc>
    <rc><c>Mo</c><c>   2</c></rc>
    <rc><c>Mo</c><c>   2</c></rc>
    <rc><c>Mo</c><c>   2</c></rc>
    <rc><c>Ta</c><c>   3</c></rc>
    <rc><c>Ta</c><c>   3</c></rc>
    <rc><c>Ta</c><c>   3</c></rc>
    <rc><c>Ta</c><c>   3</c></rc>
    <rc><c>Ta</c><c>   3</c></rc>
    <rc><c>Ti</c><c>   4</c></rc>
    <rc><c>Ti</c><c>   4</c></rc>
    <rc><c>Ti</c><c>   4</c></rc>
    <rc><c>Ti</c><c>   4</c></rc>
    <rc><c>Ti</c><c>   4</c></rc>
    <rc><c>Ti</c><c>   4</c></rc>
    <rc><c>V </c><c>   5</c></rc>
    <rc><c>V </c><c>   5</c></rc>
    <rc><c>V </c><c>   5</c></rc>
    <rc><c>V </c><c>   5</c></rc>
    <rc><c>V </c><c>   5</c></rc>
    <rc><c>V </c><c>   5</c></rc>
   </set>
  </array>
  <array name="atomtypes" >
   <dimension dim="1">type</dimension>
   <field type="int">atomspertype</field>
   <field type="string">element</field>
   <field>mass</field>
   <field>valence</field>
   <field type="string">pseudopotential</field>
   <set>
    <rc><c>   6</c><c>Nb</c><c>     92.91000000</c><c>     13.00000000</c><c>  PAW_PBE Nb_sv 25May2007               </c></rc>
    <rc><c>   6</c><c>Mo</c><c>     95.94000000</c><c>      6.00000000</c><c>  PAW_PBE Mo 08Apr2002                  </c></rc>
    <rc><c>   5</c><c>Ta</c><c>    180.94800000</c><c>      5.00000000</c><c>  PAW_PBE Ta 17Jan2003                  </c></rc>
    <rc><c>   6</c><c>Ti</c><c>     47.88000000</c><c>      4.00000000</c><c>  PAW_PBE Ti 08Apr2002                  </c></rc>
    <rc><c>   6</c><c>V </c><c>     50.94100000</c><c>      5.00000000</c><c>  PAW_PBE V 08Apr2002                   </c></rc>
   </set>
  </array>
 </atominfo>
 <structure name="initialpos" >
  <crystal>
   <varray name="basis" >
    <v>      -3.16000000      -3.16000000      -3.16000000 </v>
    <v>       1.58000000       1.58000000      -7.90000000 </v>
    <v>       7.90000000      -7.90000000      -1.58000000 </v>
   </varray>
   <i name="volume">    473.31744000 </i>
   <varray name="rec_basis" >
    <v>      -0.13713080      -0.12658228      -0.05274262 </v>
    <v>       0.04219409       0.06329114      -0.10548523 </v>
    <v>       0.06329114      -0.06329114       0.00000000 </v>
   </varray>
  </crystal>
  <varray name="positions" >
   <v>       0.96666667       0.93333333       0.40000000 </v>
   <v>       0.63333333       0.26666667       0.40000000 </v>
   <v>       0.50000000       0.00000000       0.00000000 </v>
   <v>       0.00000000       0.00000000       0.00000000 </v>
   <v>       0.10000000       0.20000000       0.80000000 </v>
   <v>       0.03333333       0.06666667       0.60000000 </v>
   <v>       0.90000000       0.80000000       0.20000000 </v>
   <v>       0.80000000       0.60000000       0.40000000 </v>
   <v>       0.73333333       0.46666667       0.20000000 </v>
   <v>       0.66666667       0.33333333       0.00000000 </v>
   <v>       0.36666667       0.73333333       0.60000000 </v>
   <v>       0.13333333       0.26666667       0.40000000 </v>
   <v>       0.83333333       0.66666667       0.00000000 </v>
   <v>       0.93333333       0.86666667       0.80000000 </v>
   <v>       0.56666667       0.13333333       0.20000000 </v>
   <v>       0.40000000       0.80000000       0.20000000 </v>
   <v>       0.30000000       0.60000000       0.40000000 </v>
   <v>       0.86666667       0.73333333       0.60000000 </v>
   <v>       0.46666667       0.93333333       0.40000000 </v>
   <v>       0.16666667       0.33333333       0.00000000 </v>
   <v>       0.26666667       0.53333333       0.80000000 </v>
   <v>       0.20000000       0.40000000       0.60000000 </v>
   <v>       0.06666667       0.13333333       0.20000000 </v>
   <v>       0.76666667       0.53333333       0.80000000 </v>
   <v>       0.70000000       0.40000000       0.60000000 </v>
   <v>       0.60000000       0.20000000       0.80000000 </v>
   <v>       0.53333333       0.06666667       0.60000000 </v>
   <v>       0.33333333       0.66666667       0.00000000 </v>
   <v>       0.23333333       0.46666667       0.20000000 </v>
  </varray>
 </structure>
 <calculation>
  <scstep>
   <time name="dav">   44.39   44.54</time>
   <time name="total">   44.51   44.70</time>
   <energy>
    <i name="alphaZ">   1153.76813855 </i>
    <i name="ewald"> -11126.24030562 </i>
    <i name="hartreedc">   -110.89605899 </i>
    <i name="XCdc">   -916.44260600 </i>
    <i name="pawpsdc"> 522369.00406028 </i>
    <i name="pawaedc">-521133.25521093 </i>
    <i name="eentropy">     -0.00189502 </i>
    <i name="bandstr">  -7179.95211396 </i>
    <i name="atom">  12875.17371654 </i>
    <i name="e_fr_energy">  -4068.84227516 </i>
    <i name="e_wo_entrp">  -4068.84038014 </i>
    <i name="e_0_energy">  -4068.84164349 </i>
   </energy>
  </scstep>
  <scstep>
   <time name="dav">   52.27   52.34</time>
   <time name="total">   52.28   52.35</time>
   <energy>
    <i name="e_fr_energy">  -9444.36648711 </i>
    <i name="e_wo_entrp">  -9444.36531588 </i>
    <i name="e_0_energy">  -9444.36609670 </i>
   </energy>
  </scstep>
  <scstep>
   <time name="dav">   56.78   56.87</time>
   <time name="total">   56.79   56.87</time>
   <energy>
    <i name="e_fr_energy"> -10296.38824759 </i>
    <i name="e_wo_entrp"> -10296.38762185 </i>
    <i name="e_0_energy"> -10296.38803901 </i>
   </energy>
  </scstep>
  <scstep>
   <time name="dav">   56.67   56.75</time>
   <time name="total">   56.68   56.75</time>
   <energy>
    <i name="e_fr_energy"> -10544.25341119 </i>
    <i name="e_wo_entrp"> -10544.25369966 </i>
    <i name="e_0_energy"> -10544.25350735 </i>
   </energy>
  </scstep>
  <scstep>
   <time name="dav">   56.62   56.71</time>
   <time name="total">   57.29   57.37</time>
   <energy>
    <i name="e_fr_energy"> -10713.96000571 </i>
    <i name="e_wo_entrp"> -10713.96766168 </i>
    <i name="e_0_energy"> -10713.96255770 </i>
   </energy>
  </scstep>
  <scstep>
   <time name="dav">   46.78   46.84</time>
   <time name="total">   47.53   47.59</time>
   <energy>
    <i name="e_fr_energy">  -1133.21904367 </i>
    <i name="e_wo_entrp">  -1133.22176269 </i>
    <i name="e_0_energy">  -1133.21995001 </i>
   </energy>
  </scstep>
  <scstep>
   <time name="dav">   49.81   49.88</time>
   <time name="total">   50.52   50.59</time>
   <energy>
    <i name="e_fr_energy">  -1002.70260686 </i>
    <i name="e_wo_entrp">  -1002.70531575 </i>
    <i name="e_0_energy">  -1002.70350982 </i>
   </energy>
  </scstep>
  <scstep>
   <time name="dav">   51.76   51.83</time>
   <time name="total">   52.43   52.50</time>
   <energy>
    <i name="e_fr_energy">   -694.50681608 </i>
    <i name="e_wo_entrp">   -694.51291303 </i>
    <i name="e_0_energy">   -694.50884840 </i>
   </energy>
  </scstep>
  <scstep>
   <time name="dav">   52.58   52.66</time>
   <time name="total">   53.26   53.34</time>
   <energy>
    <i name="e_fr_energy">   -584.82613502 </i>
    <i name="e_wo_entrp">   -584.82390736 </i>
    <i name="e_0_energy">   -584.82539247 </i>
   </energy>
  </scstep>
  <scstep>
   <time name="dav">   50.49   50.56</time>
   <time name="total">   51.16   51.23</time>
   <energy>
    <i name="e_fr_energy">   -571.99908588 </i>
    <i name="e_wo_entrp">   -572.00804876 </i>
    <i name="e_0_energy">   -572.00207350 </i>
   </energy>
  </scstep>
  <scstep>
   <time name="dav">   50.21   50.27</time>
   <time name="total">   50.88   50.95</time>
   <energy>
    <i name="e_fr_energy">   -536.19397472 </i>
    <i name="e_wo_entrp">   -536.19204333 </i>
    <i name="e_0_energy">   -536.19333092 </i>
   </energy>
  </scstep>
  <scstep>
   <time name="dav">   52.09   52.22</time>
   <time name="total">   52.72   52.89</time>
   <energy>
    <i name="e_fr_energy">   -573.14188417 </i>
    <i name="e_wo_entrp">   -573.14079153 </i>
    <i name="e_0_energy">   -573.14151995 </i>
   </energy>
  </scstep>
  <scstep>
   <time name="dav">   48.00   48.07</time>
   <time name="total">   48.68   48.75</time>
   <energy>
    <i name="e_fr_energy">   -493.50851502 </i>
    <i name="e_wo_entrp">   -493.50985353 </i>
    <i name="e_0_energy">   -493.50896119 </i>
   </energy>
  </scstep>
  <scstep>
   <time name="dav">   52.72   52.79</time>
   <time name="total">   53.39   53.46</time>
   <energy>
    <i name="e_fr_energy">   -399.14264920 </i>
    <i name="e_wo_entrp">   -399.13824186 </i>
    <i name="e_0_energy">   -399.14118009 </i>
   </energy>
  </scstep>
  <scstep>
   <time name="dav">   51.40   51.46</time>
   <time name="total">   52.08   52.15</time>
   <energy>
    <i name="e_fr_energy">   -439.90111890 </i>
    <i name="e_wo_entrp">   -439.89785931 </i>
    <i name="e_0_energy">   -439.90003237 </i>
   </energy>
  </scstep>
  <scstep>
   <time name="dav">   53.93   54.00</time>
   <time name="total">   54.60   54.68</time>
   <energy>
    <i name="e_fr_energy">   -370.81524893 </i>
    <i name="e_wo_entrp">   -370.81062974 </i>
    <i name="e_0_energy">   -370.81370920 </i>
   </energy>
  </scstep>
  <scstep>
   <time name="dav">   52.89   52.96</time>
   <time name="total">   53.57   53.64</time>
   <energy>
    <i name="e_fr_energy">   -393.09663069 </i>
    <i name="e_wo_entrp">   -393.09421174 </i>
    <i name="e_0_energy">   -393.09582437 </i>
   </energy>
  </scstep>
  <scstep>
   <time name="dav">   52.01   52.08</time>
   <time name="total">   52.68   52.75</time>
   <energy>
    <i name="e_fr_energy">   -384.05443067 </i>
    <i name="e_wo_entrp">   -384.05220584 </i>
    <i name="e_0_energy">   -384.05368906 </i>
   </energy>
  </scstep>
  <scstep>
   <time name="dav">   54.01   54.09</time>
   <time name="total">   54.68   54.76</time>
   <energy>
    <i name="e_fr_energy">   -375.43380555 </i>
    <i name="e_wo_entrp">   -375.42736771 </i>
    <i name="e_0_energy">   -375.43165960 </i>
   </energy>
  </scstep>
  <scstep>
   <time name="dav">   51.44   51.50</time>
   <time name="total">   52.10   52.17</time>
   <energy>
    <i name="e_fr_energy">   -363.58951995 </i>
    <i name="e_wo_entrp">   -363.58444997 </i>
    <i name="e_0_energy">   -363.58782996 </i>
   </energy>
  </scstep>
  <scstep>
   <time name="dav">   49.88   49.94</time>
   <time name="total">   50.55   50.62</time>
   <energy>
    <i name="e_fr_energy">   -346.78728143 </i>
    <i name="e_wo_entrp">   -346.78120105 </i>
    <i name="e_0_energy">   -346.78525464 </i>
   </energy>
  </scstep>
  <scstep>
   <time name="dav">   50.44   50.51</time>
   <time name="total">   51.11   51.17</time>
   <energy>
    <i name="e_fr_energy">   -330.48110454 </i>
    <i name="e_wo_entrp">   -330.47166467 </i>
    <i name="e_0_energy">   -330.47795792 </i>
   </energy>
  </scstep>
  <scstep>
   <time name="dav">   50.18   50.25</time>
   <time name="total">   50.86   50.93</time>
   <energy>
    <i name="e_fr_energy">   -317.18765779 </i>
    <i name="e_wo_entrp">   -317.17954387 </i>
    <i name="e_0_energy">   -317.18495315 </i>
   </energy>
  </scstep>
  <scstep>
   <time name="dav">   55.19   55.26</time>
   <time name="total">   55.87   55.94</time>
   <energy>
    <i name="e_fr_energy">   -314.39499858 </i>
    <i name="e_wo_entrp">   -314.38380752 </i>
    <i name="e_0_energy">   -314.39126822 </i>
   </energy>
  </scstep>
  <scstep>
   <time name="dav">   52.46   52.53</time>
   <time name="total">   53.13   53.21</time>
   <energy>
    <i name="e_fr_energy">   -317.04931397 </i>
    <i name="e_wo_entrp">   -317.03610164 </i>
    <i name="e_0_energy">   -317.04490986 </i>
   </energy>
  </scstep>
  <scstep>
   <time name="dav">   51.43   51.50</time>
   <time name="total">   52.09   52.17</time>
   <energy>
    <i name="e_fr_energy">   -313.63117454 </i>
    <i name="e_wo_entrp">   -313.62737433 </i>
    <i name="e_0_energy">   -313.62990780 </i>
   </energy>
  </scstep>
  <scstep>
   <time name="dav">   50.77   50.83</time>
   <time name="total">   51.45   51.52</time>
   <energy>
    <i name="e_fr_energy">   -311.08478830 </i>
    <i name="e_wo_entrp">   -311.07263168 </i>
    <i name="e_0_energy">   -311.08073609 </i>
   </energy>
  </scstep>
  <scstep>
   <time name="dav">   51.81   51.88</time>
   <time name="total">   52.48   52.54</time>
   <energy>
    <i name="e_fr_energy">   -306.44013625 </i>
    <i name="e_wo_entrp">   -306.41321208 </i>
    <i name="e_0_energy">   -306.43116153 </i>
   </energy>
  </scstep>
  <scstep>
   <time name="dav">   52.20   52.27</time>
   <time name="total">   52.87   52.95</time>
   <energy>
    <i name="e_fr_energy">   -304.42274648 </i>
    <i name="e_wo_entrp">   -304.39228120 </i>
    <i name="e_0_energy">   -304.41259138 </i>
   </energy>
  </scstep>
  <scstep>
   <time name="dav">   49.13   49.19</time>
   <time name="total">   49.80   49.87</time>
   <energy>
    <i name="e_fr_energy">   -303.96819889 </i>
    <i name="e_wo_entrp">   -303.93698257 </i>
    <i name="e_0_energy">   -303.95779345 </i>
   </energy>
  </scstep>
  <scstep>
   <time name="dav">   52.71   52.77</time>
   <time name="total">   53.37   53.45</time>
   <energy>
    <i name="e_fr_energy">   -303.85239978 </i>
    <i name="e_wo_entrp">   -303.82093694 </i>
    <i name="e_0_energy">   -303.84191217 </i>
   </energy>
  </scstep>
  <scstep>
   <time name="dav">   50.78   50.84</time>
   <time name="total">   51.45   51.52</time>
   <energy>
    <i name="e_fr_energy">   -303.61557097 </i>
    <i name="e_wo_entrp">   -303.58635876 </i>
    <i name="e_0_energy">   -303.60583357 </i>
   </energy>
  </scstep>
  <scstep>
   <time name="dav">   49.32   49.38</time>
   <time name="total">   50.00   50.07</time>
   <energy>
    <i name="e_fr_energy">   -303.51607824 </i>
    <i name="e_wo_entrp">   -303.48701720 </i>
    <i name="e_0_energy">   -303.50639122 </i>
   </energy>
  </scstep>
  <scstep>
   <time name="dav">   47.25   47.31</time>
   <time name="total">   47.92   47.98</time>
   <energy>
    <i name="e_fr_energy">   -303.04975187 </i>
    <i name="e_wo_entrp">   -303.02100929 </i>
    <i name="e_0_energy">   -303.04017101 </i>
   </energy>
  </scstep>
  <scstep>
   <time name="dav">   50.86   50.92</time>
   <time name="total">   51.54   51.62</time>
   <energy>
    <i name="e_fr_energy">   -303.06707043 </i>
    <i name="e_wo_entrp">   -303.03906916 </i>
    <i name="e_0_energy">   -303.05773667 </i>
   </energy>
  </scstep>
  <scstep>
   <time name="dav">   50.67   50.74</time>
   <time name="total">   51.34   51.41</time>
   <energy>
    <i name="e_fr_energy">   -302.91968729 </i>
    <i name="e_wo_entrp">   -302.89115271 </i>
    <i name="e_0_energy">   -302.91017576 </i>
   </energy>
  </scstep>
  <scstep>
   <time name="dav">   52.68   52.75</time>
   <time name="total">   53.36   53.45</time>
   <energy>
    <i name="e_fr_energy">   -302.88892961 </i>
    <i name="e_wo_entrp">   -302.86139978 </i>
    <i name="e_0_energy">   -302.87975300 </i>
   </energy>
  </scstep>
  <scstep>
   <time name="dav">   49.68   49.75</time>
   <time name="total">   50.36   50.43</time>
   <energy>
    <i name="e_fr_energy">   -302.87336744 </i>
    <i name="e_wo_entrp">   -302.84719416 </i>
    <i name="e_0_energy">   -302.86464301 </i>
   </energy>
  </scstep>
  <scstep>
   <time name="dav">   51.83   51.90</time>
   <time name="total">   52.49   52.57</time>
   <energy>
    <i name="e_fr_energy">   -302.86420956 </i>
    <i name="e_wo_entrp">   -302.83987086 </i>
    <i name="e_0_energy">   -302.85609666 </i>
   </energy>
  </scstep>
  <scstep>
   <time name="dav">   50.87   50.94</time>
   <time name="total">   51.54   51.61</time>
   <energy>
    <i name="e_fr_energy">   -302.84767955 </i>
    <i name="e_wo_entrp">   -302.82300646 </i>
    <i name="e_0_energy">   -302.83945519 </i>
   </energy>
  </scstep>
  <scstep>
   <time name="dav">   50.74   50.81</time>
   <time name="total">   51.42   51.50</time>
   <energy>
    <i name="e_fr_energy">   -302.84870444 </i>
    <i name="e_wo_entrp">   -302.82368365 </i>
    <i name="e_0_energy">   -302.84036418 </i>
   </energy>
  </scstep>
  <scstep>
   <time name="dav">   51.31   51.38</time>
   <time name="total">   51.98   52.05</time>
   <energy>
    <i name="e_fr_energy">   -302.84221154 </i>
    <i name="e_wo_entrp">   -302.81760708 </i>
    <i name="e_0_energy">   -302.83401005 </i>
   </energy>
  </scstep>
  <scstep>
   <time name="dav">   52.53   52.60</time>
   <time name="total">   53.21   53.30</time>
   <energy>
    <i name="e_fr_energy">   -302.84056613 </i>
    <i name="e_wo_entrp">   -302.81588107 </i>
    <i name="e_0_energy">   -302.83233778 </i>
   </energy>
  </scstep>
  <scstep>
   <time name="dav">   44.22   44.27</time>
   <time name="total">   44.89   44.94</time>
   <energy>
    <i name="e_fr_energy">   -302.83887916 </i>
    <i name="e_wo_entrp">   -302.81409765 </i>
    <i name="e_0_energy">   -302.83061866 </i>
   </energy>
  </scstep>
  <scstep>
   <time name="dav">   45.99   46.05</time>
   <time name="total">   46.67   46.74</time>
   <energy>
    <i name="e_fr_energy">   -302.83656009 </i>
    <i name="e_wo_entrp">   -302.81159367 </i>
    <i name="e_0_energy">   -302.82823795 </i>
   </energy>
  </scstep>
  <scstep>
   <time name="dav">   45.90   45.96</time>
   <time name="total">   46.57   46.64</time>
   <energy>
    <i name="e_fr_energy">   -302.83571131 </i>
    <i name="e_wo_entrp">   -302.81067367 </i>
    <i name="e_0_energy">   -302.82736543 </i>
   </energy>
  </scstep>
  <scstep>
   <time name="dav">   37.12   37.17</time>
   <time name="total">   37.21   37.27</time>
   <energy>
    <i name="alphaZ">   1153.76813855 </i>
    <i name="ewald"> -11126.24030562 </i>
    <i name="hartreedc">  -3048.78857226 </i>
    <i name="XCdc">   -823.60528356 </i>
    <i name="pawpsdc">  18448.69779192 </i>
    <i name="pawaedc"> -17010.83080492 </i>
    <i name="eentropy">     -0.02511155 </i>
    <i name="bandstr">   -770.98518930 </i>
    <i name="atom">  12875.17371654 </i>
    <i name="e_fr_energy">   -302.83562021 </i>
    <i name="e_wo_entrp">   -302.81050866 </i>
    <i name="e_0_energy">   -302.82724970 </i>
   </energy>
  </scstep>
  <structure>
   <crystal>
    <varray name="basis" >
     <v>      -3.16000000      -3.16000000      -3.16000000 </v>
     <v>       1.58000000       1.58000000      -7.90000000 </v>
     <v>       7.90000000      -7.90000000      -1.58000000 </v>
    </varray>
    <i name="volume">    473.31744000 </i>
    <varray name="rec_basis" >
     <v>      -0.13713080      -0.12658228      -0.05274262 </v>
     <v>       0.04219409       0.06329114      -0.10548523 </v>
     <v>       0.06329114      -0.06329114       0.00000000 </v>
    </varray>
   </crystal>
   <varray name="positions" >
    <v>       0.96666667       0.93333333       0.40000000 </v>
    <v>       0.63333333       0.26666667       0.40000000 </v>
    <v>       0.50000000       0.00000000       0.00000000 </v>
    <v>       0.00000000       0.00000000       0.00000000 </v>
    <v>       0.10000000       0.20000000       0.80000000 </v>
    <v>       0.03333333       0.06666667       0.60000000 </v>
    <v>       0.90000000       0.80000000       0.20000000 </v>
    <v>       0.80000000       0.60000000       0.40000000 </v>
    <v>       0.73333333       0.46666667       0.20000000 </v>
    <v>       0.66666667       0.33333333       0.00000000 </v>
    <v>       0.36666667       0.73333333       0.60000000 </v>
    <v>       0.13333333       0.26666667       0.40000000 </v>
    <v>       0.83333333       0.66666667       0.00000000 </v>
    <v>       0.93333333       0.86666667       0.80000000 </v>
    <v>       0.56666667       0.13333333       0.20000000 </v>
    <v>       0.40000000       0.80000000       0.20000000 </v>
    <v>       0.30000000       0.60000000       0.40000000 </v>
    <v>       0.86666667       0.73333333       0.60000000 </v>
    <v>       0.46666667       0.93333333       0.40000000 </v>
    <v>       0.16666667       0.33333333       0.00000000 </v>
    <v>       0.26666667       0.53333333       0.80000000 </v>
    <v>       0.20000000       0.40000000       0.60000000 </v>
    <v>       0.06666667       0.13333333       0.20000000 </v>
    <v>       0.76666667       0.53333333       0.80000000 </v>
    <v>       0.70000000       0.40000000       0.60000000 </v>
    <v>       0.60000000       0.20000000       0.80000000 </v>
    <v>       0.53333333       0.06666667       0.60000000 </v>
    <v>       0.33333333       0.66666667       0.00000000 </v>
    <v>       0.23333333       0.46666667       0.20000000 </v>
   </varray>
  </structure>
  <varray name="forces" >
   <v>       0.14131185       0.22203478       0.22718621 </v>
   <v>       0.29385097      -0.07808982       0.02939169 </v>
   <v>      -0.80833712       0.88445749       0.27966364 </v>
   <v>       0.29299979       0.08602954       0.08177796 </v>
   <v>      -0.43006442       0.21501742       0.15530931 </v>
   <v>      -0.10624375       0.27982642      -0.16108454 </v>
   <v>      -0.08819820      -0.33629370       0.17268850 </v>
   <v>      -0.34780454      -0.34860968       0.53659700 </v>
   <v>      -0.16344763       0.33408715      -0.02886636 </v>
   <v>       0.01910074       0.63898489      -0.58743336 </v>
   <v>       0.11798595      -0.54001350       0.10438762 </v>
   <v>       0.13280577       0.11437141      -0.55905760 </v>
   <v>      -0.06754090      -0.68863858       0.32438655 </v>
   <v>       0.18891555       0.37053987      -0.11954507 </v>
   <v>      -0.06521127       0.48174101      -0.18014285 </v>
   <v>      -0.84983972      -0.00060390       0.74598544 </v>
   <v>       0.29267082      -0.26633690      -0.14497384 </v>
   <v>      -0.26779390       0.21323473       0.44958790 </v>
   <v>       0.67016850      -0.64544194       0.11825820 </v>
   <v>      -0.06987682      -0.05421092      -0.43061804 </v>
   <v>      -0.30044396       0.14940954       0.19665810 </v>
   <v>      -0.08995805      -0.18316916       0.48933442 </v>
   <v>       0.45414890      -0.13931428      -0.81071808 </v>
   <v>      -0.05815313      -0.27178501       0.33799227 </v>
   <v>       0.68052513      -0.04439095      -0.47713172 </v>
   <v>      -0.08954866       0.18378128      -0.77055728 </v>
   <v>       0.33028043      -0.62885470      -0.30817221 </v>
   <v>      -0.06301106      -0.11926164       0.53184949 </v>
   <v>       0.25070872       0.17149917      -0.20275334 </v>
  </varray>
  <varray name="stress" >
   <v>     -24.11141405      -8.06673569      -0.26599666 </v>
   <v>      -8.06673567     -27.99757008      -2.70044098 </v>
   <v>      -0.26599666      -2.70044099     -22.27116544 </v>
  </varray>
  <energy>
   <i name="e_fr_energy">   -302.83562021 </i>
   <i name="e_wo_entrp">   -302.82724970 </i>
   <i name="e_0_energy">     -0.02511155 </i>
  </energy>
  <time name="totalsc"> 2434.17 2437.90</time>
 </calculation>
 <calculation>
  <scstep>
   <time name="dav">   37.27   37.33</time>
   <time name="total">   37.94   38.00</time>
   <energy>
    <i name="alphaZ">   1197.01575275 </i>
    <i name="ewald"> -11288.41492216 </i>
    <i name="hartreedc">  -3063.18271305 </i>
    <i name="XCdc">   -818.78704965 </i>
    <i name="pawpsdc">  18444.55645032 </i>
    <i name="pawaedc"> -17006.65256667 </i>
    <i name="eentropy">     -0.01540999 </i>
    <i name="bandstr">   -643.79386567 </i>
    <i name="atom">  12875.17371654 </i>
    <i name="e_fr_energy">   -304.10060758 </i>
    <i name="e_wo_entrp">   -304.08519759 </i>
    <i name="e_0_energy">   -304.09547091 </i>
   </energy>
  </scstep>
  <scstep>
   <time name="dav">   52.66   52.74</time>
   <time name="total">   53.33   53.41</time>
   <energy>
    <i name="e_fr_energy">   -305.29887785 </i>
    <i name="e_wo_entrp">   -305.28764998 </i>
    <i name="e_0_energy">   -305.29513523 </i>
   </energy>
  </scstep>
  <scstep>
   <time name="dav">   52.23   52.30</time>
   <time name="total">   52.89   52.96</time>
   <energy>
    <i name="e_fr_energy">   -304.17326056 </i>
    <i name="e_wo_entrp">   -304.14850358 </i>
    <i name="e_0_energy">   -304.16500823 </i>
   </energy>
  </scstep>
  <scstep>
   <time name="dav">   51.05   51.12</time>
   <time name="total">   51.72   51.80</time>
   <energy>
    <i name="e_fr_energy">   -303.89673835 </i>
    <i name="e_wo_entrp">   -303.88825021 </i>
    <i name="e_0_energy">   -303.89390897 </i>
   </energy>
  </scstep>
  <scstep>
   <time name="dav">   49.87   49.93</time>
   <time name="total">   50.54   50.60</time>
   <energy>
    <i name="e_fr_energy">   -303.53127173 </i>
    <i name="e_wo_entrp">   -303.51197268 </i>
    <i name="e_0_energy">   -303.52483872 </i>
   </energy>
  </scstep>
  <scstep>
   <time name="dav">   48.98   49.04</time>
   <time name="total">   49.64   49.71</time>
   <energy>
    <i name="e_fr_energy">   -303.34006970 </i>
    <i name="e_wo_entrp">   -303.32231343 </i>
    <i name="e_0_energy">   -303.33415094 </i>
   </energy>
  </scstep>
  <scstep>
   <time name="dav">   52.64   52.71</time>
   <time name="total">   53.30   53.37</time>
   <energy>
    <i name="e_fr_energy">   -303.31147371 </i>
    <i name="e_wo_entrp">   -303.28641134 </i>
    <i name="e_0_energy">   -303.30311959 </i>
   </energy>
  </scstep>
  <scstep>
   <time name="dav">   49.91   49.98</time>
   <time name="total">   50.58   50.65</time>
   <energy>
    <i name="e_fr_energy">   -303.26901040 </i>
    <i name="e_wo_entrp">   -303.24529009 </i>
    <i name="e_0_energy">   -303.26110363 </i>
   </energy>
  </scstep>
  <scstep>
   <time name="dav">   51.45   51.51</time>
   <time name="total">   52.11   52.18</time>
   <energy>
    <i name="e_fr_energy">   -303.25719993 </i>
    <i name="e_wo_entrp">   -303.23438922 </i>
    <i name="e_0_energy">   -303.24959636 </i>
   </energy>
  </scstep>
  <scstep>
   <time name="dav">   49.44   49.51</time>
   <time name="total">   50.12   50.19</time>
   <energy>
    <i name="e_fr_energy">   -303.25077688 </i>
    <i name="e_wo_entrp">   -303.22763498 </i>
    <i name="e_0_energy">   -303.24306291 </i>
   </energy>
  </scstep>
  <scstep>
   <time name="dav">   48.90   48.97</time>
   <time name="total">   49.56   49.63</time>
   <energy>
    <i name="e_fr_energy">   -303.25166714 </i>
    <i name="e_wo_entrp">   -303.22848064 </i>
    <i name="e_0_energy">   -303.24393830 </i>
   </energy>
  </scstep>
  <scstep>
   <time name="dav">   51.13   51.20</time>
   <time name="total">   51.80   51.88</time>
   <energy>
    <i name="e_fr_energy">   -303.25373921 </i>
    <i name="e_wo_entrp">   -303.23038406 </i>
    <i name="e_0_energy">   -303.24595416 </i>
   </energy>
  </scstep>
  <scstep>
   <time name="dav">   49.99   50.06</time>
   <time name="total">   50.65   50.72</time>
   <energy>
    <i name="e_fr_energy">   -303.26021032 </i>
    <i name="e_wo_entrp">   -303.23764165 </i>
    <i name="e_0_energy">   -303.25268743 </i>
   </energy>
  </scstep>
  <scstep>
   <time name="dav">   50.74   50.81</time>
   <time name="total">   51.40   51.48</time>
   <energy>
    <i name="e_fr_energy">   -303.25615924 </i>
    <i name="e_wo_entrp">   -303.23294509 </i>
    <i name="e_0_energy">   -303.24842119 </i>
   </energy>
  </scstep>
  <scstep>
   <time name="dav">   50.82   50.89</time>
   <time name="total">   51.48   51.55</time>
   <energy>
    <i name="e_fr_energy">   -303.25560665 </i>
    <i name="e_wo_entrp">   -303.23229935 </i>
    <i name="e_0_energy">   -303.24783755 </i>
   </energy>
  </scstep>
  <scstep>
   <time name="dav">   45.80   45.86</time>
   <time name="total">   46.46   46.53</time>
   <energy>
    <i name="e_fr_energy">   -303.25555075 </i>
    <i name="e_wo_entrp">   -303.23239922 </i>
    <i name="e_0_energy">   -303.24783358 </i>
   </energy>
  </scstep>
  <scstep>
   <time name="dav">   41.21   41.27</time>
   <time name="total">   41.89   41.94</time>
   <energy>
    <i name="e_fr_energy">   -303.25544978 </i>
    <i name="e_wo_entrp">   -303.23223420 </i>
    <i name="e_0_energy">   -303.24771126 </i>
   </energy>
  </scstep>
  <scstep>
   <time name="dav">   26.37   26.40</time>
   <time name="total">   26.44   26.49</time>
   <energy>
    <i name="alphaZ">   1197.01575275 </i>
    <i name="ewald"> -11288.41492216 </i>
    <i name="hartreedc">  -2994.01527054 </i>
    <i name="XCdc">   -821.01359769 </i>
    <i name="pawpsdc">  19288.09522827 </i>
    <i name="pawaedc"> -17851.01164148 </i>
    <i name="eentropy">     -0.02329274 </i>
    <i name="bandstr">   -709.06141396 </i>
    <i name="atom">  12875.17371654 </i>
    <i name="e_fr_energy">   -303.25544101 </i>
    <i name="e_wo_entrp">   -303.23214827 </i>
    <i name="e_0_energy">   -303.24767676 </i>
   </energy>
  </scstep>
  <structure>
   <crystal>
    <varray name="basis" >
     <v>      -3.10961531      -3.09979963      -3.12080684 </v>
     <v>       1.55604691       1.56248090      -7.81583743 </v>
     <v>       7.83791441      -7.82052334      -1.55325528 </v>
    </varray>
    <i name="volume">    456.21670428 </i>
    <varray name="rec_basis" >
     <v>      -0.13929975      -0.12898021      -0.05351775 </v>
     <v>       0.04294354       0.06420336      -0.10656073 </v>
     <v>       0.06379366      -0.06391780      -0.00007733 </v>
    </varray>
   </crystal>
   <varray name="positions" >
    <v>       0.96379786       0.93314280       0.39975353 </v>
    <v>       0.63179143       0.26687681       0.40113566 </v>
    <v>       0.49923492      -0.00036805      -0.00516866 </v>
    <v>      -0.00267179       0.00044294       0.00063195 </v>
    <v>       0.10113690       0.19899075       0.79803035 </v>
    <v>       0.03273726       0.06812455       0.59882120 </v>
    <v>       0.90219772       0.79791486       0.20075752 </v>
    <v>       0.80306442       0.59549692       0.40000246 </v>
    <v>       0.73244792       0.46750094       0.19848086 </v>
    <v>       0.66413293       0.33831263      -0.00189271 </v>
    <v>       0.36891820       0.73139344       0.60200909 </v>
    <v>       0.13317881       0.27013120       0.40005629 </v>
    <v>       0.83716005       0.66277578       0.00189642 </v>
    <v>       0.93012496       0.86879095       0.79944544 </v>
    <v>       0.56461461       0.13558823       0.19832997 </v>
    <v>       0.40372773       0.79447202       0.19740700 </v>
    <v>       0.30005913       0.60052029       0.40170684 </v>
    <v>       0.86599217       0.73115140       0.59853126 </v>
    <v>       0.46587373       0.93212494       0.40401700 </v>
    <v>       0.16855568       0.33521693      -0.00004783 </v>
    <v>       0.26724149       0.53217719       0.79862645 </v>
    <v>       0.20046859       0.39676744       0.60028460 </v>
    <v>       0.06657580       0.13795806       0.20181204 </v>
    <v>       0.76785108       0.53066510       0.80065229 </v>
    <v>       0.69698306       0.40367778       0.60221341 </v>
    <v>       0.60143076       0.20430014       0.79916543 </v>
    <v>       0.53577267       0.06698713       0.60292856 </v>
    <v>       0.33312521       0.66346774       0.00017175 </v>
    <v>       0.23114336       0.46873243       0.20024185 </v>
   </varray>
  </structure>
  <varray name="forces" >
   <v>       0.11976872       0.18192529       0.06529599 </v>
   <v>       0.16139391      -0.06316896       0.01745696 </v>
   <v>      -0.72157244       0.74411206       0.30522759 </v>
   <v>       0.20470562       0.05207845      -0.02638933 </v>
   <v>      -0.46770580      -0.07753116       0.16821079 </v>
   <v>      -0.06310982       0.13292212      -0.05624183 </v>
   <v>      -0.04267779      -0.11234822       0.06607746 </v>
   <v>      -0.05639342      -0.20710153       0.19991177 </v>
   <v>      -0.06566062       0.04590800       0.15737105 </v>
   <v>      -0.05444105       0.57633710      -0.34717581 </v>
   <v>       0.21461498      -0.63125520      -0.02152879 </v>
   <v>       0.11369447       0.00590656      -0.20796521 </v>
   <v>      -0.24690505      -0.20741572       0.08542916 </v>
   <v>       0.15375162       0.41254690       0.07677777 </v>
   <v>      -0.05598615       0.31840770       0.00529053 </v>
   <v>      -0.30609433       0.04087823       0.19375751 </v>
   <v>       0.15321696      -0.26431332      -0.06638680 </v>
   <v>      -0.07261738       0.05741624       0.31563960 </v>
   <v>       0.35887925      -0.39412416       0.12172496 </v>
   <v>      -0.14939197      -0.02858686      -0.30411663 </v>
   <v>      -0.22351746       0.08415186       0.10048024 </v>
   <v>      -0.04262939      -0.15128742       0.31774090 </v>
   <v>       0.27170719      -0.06132316      -0.49793026 </v>
   <v>       0.01372907      -0.09134944       0.20268969 </v>
   <v>       0.65414694      -0.10864209      -0.34874548 </v>
   <v>      -0.11726922       0.29430418      -0.65930610 </v>
   <v>       0.41684184      -0.68694614      -0.14643137 </v>
   <v>      -0.26099275      -0.01678943       0.44276779 </v>
   <v>       0.11051407       0.15528812      -0.15963213 </v>
  </varray>
  <varray name="stress" >
   <v>      45.27086962      -5.46380567      -0.00460952 </v>
   <v>      -5.46380553      41.51935584      -2.43354748 </v>
   <v>      -0.00460942      -2.43354747      45.67250452 </v>
  </varray>
  <energy>
   <i name="e_fr_energy">   -303.25544101 </i>
   <i name="e_wo_entrp">   -303.24767676 </i>
   <i name="e_0_energy">     -0.02329274 </i>
  </energy>
  <time name="totalsc">  891.58  892.86</time>
 </calculation>
 <calculation>
  <scstep>
   <time name="dav">   39.84   39.89</time>
   <time name="total">   40.50   40.56</time>
   <energy>
    <i name="alphaZ">   1194.51448949 </i>
    <i name="ewald"> -11279.27134193 </i>
    <i name="hartreedc">  -2993.29141849 </i>
    <i name="XCdc">   -821.27957667 </i>
    <i name="pawpsdc">  19286.74322628 </i>
    <i name="pawaedc"> -17849.53533146 </i>
    <i name="eentropy">     -0.02376172 </i>
    <i name="bandstr">   -716.29040761 </i>
    <i name="atom">  12875.17371654 </i>
    <i name="e_fr_energy">   -303.26040558 </i>
    <i name="e_wo_entrp">   -303.23664387 </i>
    <i name="e_0_energy">   -303.25248501 </i>
   </energy>
  </scstep>
  <scstep>
   <time name="dav">   53.58   53.65</time>
   <time name="total">   54.25   54.33</time>
   <energy>
    <i name="e_fr_energy">   -303.26453319 </i>
    <i name="e_wo_entrp">   -303.24040012 </i>
    <i name="e_0_energy">   -303.25648884 </i>
   </energy>
  </scstep>
  <scstep>
   <time name="dav">   52.76   52.83</time>
   <time name="total">   53.41   53.49</time>
   <energy>
    <i name="e_fr_energy">   -303.26050065 </i>
    <i name="e_wo_entrp">   -303.23812117 </i>
    <i name="e_0_energy">   -303.25304083 </i>
   </energy>
  </scstep>
  <scstep>
   <time name="dav">   47.78   47.84</time>
   <time name="total">   48.46   48.53</time>
   <energy>
    <i name="e_fr_energy">   -303.25963494 </i>
    <i name="e_wo_entrp">   -303.23567060 </i>
    <i name="e_0_energy">   -303.25164682 </i>
   </energy>
  </scstep>
  <scstep>
   <time name="dav">   47.69   47.76</time>
   <time name="total">   48.35   48.42</time>
   <energy>
    <i name="e_fr_energy">   -303.25860648 </i>
    <i name="e_wo_entrp">   -303.23518126 </i>
    <i name="e_0_energy">   -303.25079807 </i>
   </energy>
  </scstep>
  <scstep>
   <time name="dav">   48.96   49.02</time>
   <time name="total">   49.63   49.70</time>
   <energy>
    <i name="e_fr_energy">   -303.25754681 </i>
    <i name="e_wo_entrp">   -303.23390579 </i>
    <i name="e_0_energy">   -303.24966647 </i>
   </energy>
  </scstep>
  <scstep>
   <time name="dav">   45.60   45.72</time>
   <time name="total">   46.24   46.40</time>
   <energy>
    <i name="e_fr_energy">   -303.25745345 </i>
    <i name="e_wo_entrp">   -303.23412491 </i>
    <i name="e_0_energy">   -303.24967727 </i>
   </energy>
  </scstep>
  <scstep>
   <time name="dav">   44.46   44.52</time>
   <time name="total">   45.14   45.21</time>
   <energy>
    <i name="e_fr_energy">   -303.25728759 </i>
    <i name="e_wo_entrp">   -303.23389321 </i>
    <i name="e_0_energy">   -303.24948946 </i>
   </energy>
  </scstep>
  <scstep>
   <time name="dav">   37.81   37.86</time>
   <time name="total">   37.88   37.92</time>
   <energy>
    <i name="alphaZ">   1194.51448949 </i>
    <i name="ewald"> -11279.27134193 </i>
    <i name="hartreedc">  -2997.69627703 </i>
    <i name="XCdc">   -821.13243214 </i>
    <i name="pawpsdc">  19232.16193590 </i>
    <i name="pawaedc"> -17794.53832286 </i>
    <i name="eentropy">     -0.02345224 </i>
    <i name="bandstr">   -712.44555881 </i>
    <i name="atom">  12875.17371654 </i>
    <i name="e_fr_energy">   -303.25724310 </i>
    <i name="e_wo_entrp">   -303.23379085 </i>
    <i name="e_0_energy">   -303.24942568 </i>
   </energy>
  </scstep>
  <structure>
   <crystal>
    <varray name="basis" >
     <v>      -3.11246137      -3.10320015      -3.12302073 </v>
     <v>       1.55739994       1.56347050      -7.82059149 </v>
     <v>       7.84142141      -7.82501270      -1.55476600 </v>
    </varray>
    <i name="volume">    457.17200293 </i>
    <varray name="rec_basis" >
     <v>      -0.13917532      -0.12884245      -0.05347332 </v>
     <v>       0.04290054       0.06415106      -0.10649941 </v>
     <v>       0.06376508      -0.06388204      -0.00007288 </v>
    </varray>
   </crystal>
   <varray name="positions" >
    <v>       0.96396267       0.93315339       0.39976768 </v>
    <v>       0.63187981       0.26686462       0.40107098 </v>
    <v>       0.49927973      -0.00034699      -0.00487403 </v>
    <v>      -0.00251840       0.00041734       0.00059602 </v>
    <v>       0.10107187       0.19904856       0.79814260 </v>
    <v>       0.03277179       0.06804125       0.59888838 </v>
    <v>       0.90207122       0.79803416       0.20071431 </v>
    <v>       0.80288812       0.59575443       0.40000231 </v>
    <v>       0.73249909       0.46745323       0.19856746 </v>
    <v>       0.66427910       0.33802801      -0.00178486 </v>
    <v>       0.36878841       0.73150442       0.60189454 </v>
    <v>       0.13318789       0.26993331       0.40005300 </v>
    <v>       0.83693968       0.66299836       0.00178828 </v>
    <v>       0.93030948       0.86866930       0.79947711 </v>
    <v>       0.56473291       0.13545927       0.19842518 </v>
    <v>       0.40351371       0.79478820       0.19755479 </v>
    <v>       0.30005547       0.60049054       0.40160954 </v>
    <v>       0.86603103       0.73127598       0.59861505 </v>
    <v>       0.46591851       0.93219378       0.40378809 </v>
    <v>       0.16844729       0.33510955      -0.00004522 </v>
    <v>       0.26720864       0.53224331       0.79870474 </v>
    <v>       0.20044143       0.39695211       0.60026844 </v>
    <v>       0.06658099       0.13769386       0.20170865 </v>
    <v>       0.76778277       0.53081761       0.80061513 </v>
    <v>       0.69715621       0.40346735       0.60208727 </v>
    <v>       0.60134899       0.20405471       0.79921285 </v>
    <v>       0.53563208       0.06696901       0.60276154 </v>
    <v>       0.33313694       0.66365042       0.00016204 </v>
    <v>       0.23126924       0.46861421       0.20022810 </v>
   </varray>
  </structure>
  <varray name="forces" >
   <v>       0.11938546       0.18575603       0.08094992 </v>
   <v>       0.17261014      -0.06258430       0.02293587 </v>
   <v>      -0.73401015       0.75508766       0.30458170 </v>
   <v>       0.21294257       0.05361230      -0.01489250 </v>
   <v>      -0.47123489      -0.06041531       0.16690410 </v>
   <v>      -0.06908725       0.14186540      -0.06209358 </v>
   <v>      -0.04825611      -0.12277464       0.07374023 </v>
   <v>      -0.07860735      -0.21546015       0.22055907 </v>
   <v>      -0.07403284       0.07045482       0.14197676 </v>
   <v>      -0.04535639       0.58156980      -0.36067280 </v>
   <v>       0.21098145      -0.62632166      -0.01219504 </v>
   <v>       0.11585515       0.01372074      -0.23196336 </v>
   <v>      -0.23897837      -0.24060480       0.09505498 </v>
   <v>       0.15748070       0.40448963       0.06578948 </v>
   <v>      -0.05628335       0.32837636      -0.01250980 </v>
   <v>      -0.33449686       0.03153140       0.22979229 </v>
   <v>       0.15925277      -0.26825494      -0.07268733 </v>
   <v>      -0.07865731       0.06486398       0.31933749 </v>
   <v>       0.37504247      -0.40889590       0.12239054 </v>
   <v>      -0.14568319      -0.02616865      -0.31889081 </v>
   <v>      -0.22405615       0.08917583       0.10599464 </v>
   <v>      -0.04754493      -0.15835647       0.33019116 </v>
   <v>       0.28649611      -0.06387889      -0.52248364 </v>
   <v>       0.01472878      -0.10475909       0.20650476 </v>
   <v>       0.65964036      -0.10263875      -0.35565744 </v>
   <v>      -0.11615884       0.28939331      -0.65852624 </v>
   <v>       0.41222428      -0.68376065      -0.15490771 </v>
   <v>      -0.25161864      -0.02291668       0.45209893 </v>
   <v>       0.11742240       0.15789363      -0.16132166 </v>
  </varray>
  <varray name="stress" >
   <v>      40.54158233      -5.60591625      -0.06367826 </v>
   <v>      -5.60591624      37.12248391      -2.34930010 </v>
   <v>      -0.06367834      -2.34930012      41.21322026 </v>
  </varray>
  <energy>
   <i name="e_fr_energy">   -303.25724310 </i>
   <i name="e_wo_entrp">   -303.24942568 </i>
   <i name="e_0_energy">     -0.02345224 </i>
  </energy>
  <time name="totalsc">  444.01  444.73</time>
 </calculation>
 <calculation>
  <scstep>
   <time name="dav">   33.46   33.51</time>
   <time name="total">   34.12   34.17</time>
   <energy>
    <i name="alphaZ">   1186.39722663 </i>
    <i name="ewald"> -11271.10252748 </i>
    <i name="hartreedc">  -2974.20997126 </i>
    <i name="XCdc">   -822.11710576 </i>
    <i name="pawpsdc">  19232.53648752 </i>
    <i name="pawaedc"> -17794.93324322 </i>
    <i name="eentropy">     -0.02322278 </i>
    <i name="bandstr">   -735.14329674 </i>
    <i name="atom">  12875.17371654 </i>
    <i name="e_fr_energy">   -303.42193656 </i>
    <i name="e_wo_entrp">   -303.39871377 </i>
    <i name="e_0_energy">   -303.41419563 </i>
   </energy>
  </scstep>
  <scstep>
   <time name="dav">   50.33   50.39</time>
   <time name="total">   50.98   51.05</time>
   <energy>
    <i name="e_fr_energy">   -303.97505556 </i>
    <i name="e_wo_entrp">   -303.96422798 </i>
    <i name="e_0_energy">   -303.97144636 </i>
   </energy>
  </scstep>
  <scstep>
   <time name="dav">   51.55   51.62</time>
   <time name="total">   52.23   52.31</time>
   <energy>
    <i name="e_fr_energy">   -303.66433853 </i>
    <i name="e_wo_entrp">   -303.64350757 </i>
    <i name="e_0_energy">   -303.65739487 </i>
   </energy>
  </scstep>
  <scstep>
   <time name="dav">   50.02   50.09</time>
   <time name="total">   50.69   50.76</time>
   <energy>
    <i name="e_fr_energy">   -303.64737929 </i>
    <i name="e_wo_entrp">   -303.62955591 </i>
    <i name="e_0_energy">   -303.64143817 </i>
   </energy>
  </scstep>
  <scstep>
   <time name="dav">   48.42   48.48</time>
   <time name="total">   49.09   49.16</time>
   <energy>
    <i name="e_fr_energy">   -303.61705940 </i>
    <i name="e_wo_entrp">   -303.59665923 </i>
    <i name="e_0_energy">   -303.61025934 </i>
   </energy>
  </scstep>
  <scstep>
   <time name="dav">   49.49   49.55</time>
   <time name="total">   50.15   50.22</time>
   <energy>
    <i name="e_fr_energy">   -303.60521182 </i>
    <i name="e_wo_entrp">   -303.58709669 </i>
    <i name="e_0_energy">   -303.59917344 </i>
   </energy>
  </scstep>
  <scstep>
   <time name="dav">   50.75   50.82</time>
   <time name="total">   51.42   51.50</time>
   <energy>
    <i name="e_fr_energy">   -303.60756922 </i>
    <i name="e_wo_entrp">   -303.58780262 </i>
    <i name="e_0_energy">   -303.60098036 </i>
   </energy>
  </scstep>
  <scstep>
   <time name="dav">   49.96   50.03</time>
   <time name="total">   50.62   50.69</time>
   <energy>
    <i name="e_fr_energy">   -303.60025541 </i>
    <i name="e_wo_entrp">   -303.58094207 </i>
    <i name="e_0_energy">   -303.59381763 </i>
   </energy>
  </scstep>
  <scstep>
   <time name="dav">   51.33   51.40</time>
   <time name="total">   52.02   52.10</time>
   <energy>
    <i name="e_fr_energy">   -303.59689471 </i>
    <i name="e_wo_entrp">   -303.57819143 </i>
    <i name="e_0_energy">   -303.59066028 </i>
   </energy>
  </scstep>
  <scstep>
   <time name="dav">   44.55   44.61</time>
   <time name="total">   45.21   45.27</time>
   <energy>
    <i name="e_fr_energy">   -303.59588515 </i>
    <i name="e_wo_entrp">   -303.57676615 </i>
    <i name="e_0_energy">   -303.58951215 </i>
   </energy>
  </scstep>
  <scstep>
   <time name="dav">   47.25   47.32</time>
   <time name="total">   47.93   48.01</time>
   <energy>
    <i name="e_fr_energy">   -303.59558898 </i>
    <i name="e_wo_entrp">   -303.57641571 </i>
    <i name="e_0_energy">   -303.58919789 </i>
   </energy>
  </scstep>
  <scstep>
   <time name="dav">   44.91   44.97</time>
   <time name="total">   45.57   45.63</time>
   <energy>
    <i name="e_fr_energy">   -303.59570307 </i>
    <i name="e_wo_entrp">   -303.57639426 </i>
[...]
       <r>    4.7129    1.0000 </r>
       <r>    4.7482    1.0000 </r>
       <r>    4.8210    1.0000 </r>
       <r>    4.8956    1.0000 </r>
       <r>    4.9792    1.0000 </r>
       <r>    5.0480    1.0000 </r>
       <r>    5.0967    1.0000 </r>
       <r>    5.1190    1.0000 </r>
       <r>    5.1792    1.0000 </r>
       <r>    5.2266    1.0000 </r>
       <r>    5.2985    1.0000 </r>
       <r>    5.3469    1.0000 </r>
       <r>    5.3831    1.0000 </r>
       <r>    5.4733    1.0000 </r>
       <r>    5.4875    1.0000 </r>
       <r>    5.5503    1.0000 </r>
       <r>    5.5837    1.0000 </r>
       <r>    5.7064    1.0000 </r>
       <r>    5.7670    1.0000 </r>
       <r>    5.7883    1.0000 </r>
       <r>    5.8550    1.0000 </r>
       <r>    5.8957    1.0000 </r>
       <r>    5.9353    1.0000 </r>
       <r>    6.0081    1.0000 </r>
       <r>    6.0571    1.0001 </r>
       <r>    6.1132    1.0004 </r>
       <r>    6.1617    1.0012 </r>
       <r>    6.2763    1.0100 </r>
       <r>    6.2851    1.0114 </r>
       <r>    6.3248    1.0192 </r>
       <r>    6.3904    1.0332 </r>
       <r>    6.4040    1.0349 </r>
       <r>    6.4469    1.0313 </r>
       <r>    6.5187    0.9655 </r>
       <r>    6.5573    0.8826 </r>
       <r>    6.6323    0.6242 </r>
       <r>    6.6978    0.3511 </r>
       <r>    6.7479    0.1708 </r>
       <r>    6.7887    0.0655 </r>
       <r>    6.8292    0.0013 </r>
       <r>    6.9108   -0.0354 </r>
       <r>    6.9939   -0.0203 </r>
       <r>    7.0711   -0.0069 </r>
       <r>    7.1345   -0.0021 </r>
       <r>    7.2706   -0.0001 </r>
       <r>    7.3809   -0.0000 </r>
       <r>    7.4406   -0.0000 </r>
       <r>    7.5964   -0.0000 </r>
       <r>    7.6675   -0.0000 </r>
       <r>    7.7419   -0.0000 </r>
       <r>    7.8572   -0.0000 </r>
       <r>    8.0449   -0.0000 </r>
       <r>    8.1217   -0.0000 </r>
       <r>    8.1890   -0.0000 </r>
       <r>    8.3539   -0.0000 </r>
       <r>    8.4141   -0.0000 </r>
       <r>    8.5305   -0.0000 </r>
       <r>    8.5861   -0.0000 </r>
       <r>    8.6452   -0.0000 </r>
       <r>    8.7197   -0.0000 </r>
       <r>    8.7684   -0.0000 </r>
      </set>
     </set>
    </set>
   </array>
  </eigenvalues>
  <separator name="orbital magnetization" >
   <v name="MAGDIPOLOUT">      0.00000000      0.00000000      0.00000000</v>
  </separator>
  <dos>
   <i name="efermi">      6.66197429 </i>
   <total>
    <array>
     <dimension dim="1">gridpoints</dimension>
     <dimension dim="2">spin</dimension>
     <field>energy</field>
     <field>total</field>
     <field>integrated</field>
     <set>
      <set comment="spin 1">
       <r>   -50.3866     0.0000     0.0000 </r>
       <r>   -50.1799     0.0000     0.0000 </r>
       <r>   -49.9731     0.0000     0.0000 </r>
       <r>   -49.7663     0.0000     0.0000 </r>
       <r>   -49.5595     0.0000     0.0000 </r>
       <r>   -49.3528    -0.0000    -0.0000 </r>
       <r>   -49.1460    -0.0000    -0.0000 </r>
       <r>   -48.9392    -0.0000    -0.0000 </r>
       <r>   -48.7325    -0.0000    -0.0000 </r>
       <r>   -48.5257    -0.0000    -0.0000 </r>
       <r>   -48.3189    -0.0000    -0.0000 </r>
       <r>   -48.1121    -0.0032    -0.0007 </r>
       <r>   -47.9054    -0.2094    -0.0440 </r>
       <r>   -47.6986    -0.0960    -0.0638 </r>
       <r>   -47.4918    11.9209     2.4011 </r>
       <r>   -47.2850    25.4519     7.6639 </r>
       <r>   -47.0783    19.4628    11.6883 </r>
       <r>   -46.8715     1.9984    12.1016 </r>
       <r>   -46.6647    -0.4732    12.0037 </r>
       <r>   -46.4579    -0.0179    12.0000 </r>
       <r>   -46.2512    -0.0001    12.0000 </r>
       <r>   -46.0444    -0.0000    12.0000 </r>
       <r>   -45.8376    -0.0000    12.0000 </r>
       <r>   -45.6308     0.0000    12.0000 </r>
       <r>   -45.4241     0.0000    12.0000 </r>
       <r>   -45.2173     0.0000    12.0000 </r>
       <r>   -45.0105     0.0000    12.0000 </r>
       <r>   -44.8037     0.0000    12.0000 </r>
       <r>   -44.5970     0.0000    12.0000 </r>
       <r>   -44.3902     0.0000    12.0000 </r>
       <r>   -44.1834     0.0000    12.0000 </r>
       <r>   -43.9766     0.0000    12.0000 </r>
       <r>   -43.7699     0.0000    12.0000 </r>
       <r>   -43.5631     0.0000    12.0000 </r>
       <r>   -43.3563     0.0000    12.0000 </r>
       <r>   -43.1495     0.0000    12.0000 </r>
       <r>   -42.9428     0.0000    12.0000 </r>
       <r>   -42.7360     0.0000    12.0000 </r>
       <r>   -42.5292     0.0000    12.0000 </r>
       <r>   -42.3224     0.0000    12.0000 </r>
       <r>   -42.1157     0.0000    12.0000 </r>
       <r>   -41.9089     0.0000    12.0000 </r>
       <r>   -41.7021     0.0000    12.0000 </r>
       <r>   -41.4953     0.0000    12.0000 </r>
       <r>   -41.2886     0.0000    12.0000 </r>
       <r>   -41.0818     0.0000    12.0000 </r>
       <r>   -40.8750     0.0000    12.0000 </r>
       <r>   -40.6682     0.0000    12.0000 </r>
       <r>   -40.4615     0.0000    12.0000 </r>
       <r>   -40.2547     0.0000    12.0000 </r>
       <r>   -40.0479     0.0000    12.0000 </r>
       <r>   -39.8411     0.0000    12.0000 </r>
       <r>   -39.6344     0.0000    12.0000 </r>
       <r>   -39.4276     0.0000    12.0000 </r>
       <r>   -39.2208     0.0000    12.0000 </r>
       <r>   -39.0140     0.0000    12.0000 </r>
       <r>   -38.8073     0.0000    12.0000 </r>
       <r>   -38.6005     0.0000    12.0000 </r>
       <r>   -38.3937     0.0000    12.0000 </r>
       <r>   -38.1869     0.0000    12.0000 </r>
       <r>   -37.9802     0.0000    12.0000 </r>
       <r>   -37.7734     0.0000    12.0000 </r>
       <r>   -37.5666     0.0000    12.0000 </r>
       <r>   -37.3598     0.0000    12.0000 </r>
       <r>   -37.1531     0.0000    12.0000 </r>
       <r>   -36.9463     0.0000    12.0000 </r>
       <r>   -36.7395     0.0000    12.0000 </r>
       <r>   -36.5327     0.0000    12.0000 </r>
       <r>   -36.3260     0.0000    12.0000 </r>
       <r>   -36.1192     0.0000    12.0000 </r>
       <r>   -35.9124     0.0000    12.0000 </r>
       <r>   -35.7056     0.0000    12.0000 </r>
       <r>   -35.4989     0.0000    12.0000 </r>
       <r>   -35.2921     0.0000    12.0000 </r>
       <r>   -35.0853     0.0000    12.0000 </r>
       <r>   -34.8785     0.0000    12.0000 </r>
       <r>   -34.6718     0.0000    12.0000 </r>
       <r>   -34.4650     0.0000    12.0000 </r>
       <r>   -34.2582     0.0000    12.0000 </r>
       <r>   -34.0514     0.0000    12.0000 </r>
       <r>   -33.8447     0.0000    12.0000 </r>
       <r>   -33.6379     0.0000    12.0000 </r>
       <r>   -33.4311     0.0000    12.0000 </r>
       <r>   -33.2244     0.0000    12.0000 </r>
       <r>   -33.0176     0.0000    12.0000 </r>
       <r>   -32.8108     0.0000    12.0000 </r>
       <r>   -32.6040     0.0000    12.0000 </r>
       <r>   -32.3973     0.0000    12.0000 </r>
       <r>   -32.1905     0.0000    12.0000 </r>
       <r>   -31.9837     0.0000    12.0000 </r>
       <r>   -31.7769     0.0000    12.0000 </r>
       <r>   -31.5702     0.0000    12.0000 </r>
       <r>   -31.3634     0.0000    12.0000 </r>
       <r>   -31.1566     0.0000    12.0000 </r>
       <r>   -30.9498     0.0000    12.0000 </r>
       <r>   -30.7431     0.0000    12.0000 </r>
       <r>   -30.5363     0.0000    12.0000 </r>
       <r>   -30.3295     0.0000    12.0000 </r>
       <r>   -30.1227     0.0000    12.0000 </r>
       <r>   -29.9160     0.0000    12.0000 </r>
       <r>   -29.7092     0.0000    12.0000 </r>
       <r>   -29.5024     0.0000    12.0000 </r>
       <r>   -29.2956     0.0000    12.0000 </r>
       <r>   -29.0889     0.0000    12.0000 </r>
       <r>   -28.8821     0.0000    12.0000 </r>
       <r>   -28.6753     0.0000    12.0000 </r>
       <r>   -28.4685     0.0000    12.0000 </r>
       <r>   -28.2618     0.0000    12.0000 </r>
       <r>   -28.0550     0.0000    12.0000 </r>
       <r>   -27.8482     0.0000    12.0000 </r>
       <r>   -27.6414     0.0000    12.0000 </r>
       <r>   -27.4347     0.0000    12.0000 </r>
       <r>   -27.2279     0.0000    12.0000 </r>
       <r>   -27.0211     0.0000    12.0000 </r>
       <r>   -26.8143     0.0000    12.0000 </r>
       <r>   -26.6076     0.0000    12.0000 </r>
       <r>   -26.4008     0.0000    12.0000 </r>
       <r>   -26.1940    -0.0000    12.0000 </r>
       <r>   -25.9872    -0.0000    12.0000 </r>
       <r>   -25.7805    -0.0000    12.0000 </r>
       <r>   -25.5737    -0.0000    12.0000 </r>
       <r>   -25.3669    -0.0000    12.0000 </r>
       <r>   -25.1601    -0.0000    12.0000 </r>
       <r>   -24.9534    -0.0005    11.9999 </r>
       <r>   -24.7466    -0.0399    11.9917 </r>
       <r>   -24.5398    -0.1704    11.9564 </r>
       <r>   -24.3330     2.7017    12.5151 </r>
       <r>   -24.1263     9.1727    14.4118 </r>
       <r>   -23.9195    10.0143    16.4825 </r>
       <r>   -23.7127    22.0237    21.0364 </r>
       <r>   -23.5059    42.6798    29.8615 </r>
       <r>   -23.2992    50.0676    40.2142 </r>
       <r>   -23.0924    19.3716    44.2198 </r>
       <r>   -22.8856    13.8263    47.0787 </r>
       <r>   -22.6788     4.7490    48.0607 </r>
       <r>   -22.4721    -0.2194    48.0153 </r>
       <r>   -22.2653    -0.0727    48.0003 </r>
       <r>   -22.0585    -0.0013    48.0000 </r>
       <r>   -21.8517    -0.0000    48.0000 </r>
       <r>   -21.6450    -0.0000    48.0000 </r>
       <r>   -21.4382    -0.0000    48.0000 </r>
       <r>   -21.2314     0.0000    48.0000 </r>
       <r>   -21.0246     0.0000    48.0000 </r>
       <r>   -20.8179     0.0000    48.0000 </r>
       <r>   -20.6111     0.0000    48.0000 </r>
       <r>   -20.4043     0.0000    48.0000 </r>
       <r>   -20.1975     0.0000    48.0000 </r>
       <r>   -19.9908     0.0000    48.0000 </r>
       <r>   -19.7840     0.0000    48.0000 </r>
       <r>   -19.5772     0.0000    48.0000 </r>
       <r>   -19.3704     0.0000    48.0000 </r>
       <r>   -19.1637     0.0000    48.0000 </r>
       <r>   -18.9569     0.0000    48.0000 </r>
       <r>   -18.7501     0.0000    48.0000 </r>
       <r>   -18.5433     0.0000    48.0000 </r>
       <r>   -18.3366     0.0000    48.0000 </r>
       <r>   -18.1298     0.0000    48.0000 </r>
       <r>   -17.9230     0.0000    48.0000 </r>
       <r>   -17.7162     0.0000    48.0000 </r>
       <r>   -17.5095     0.0000    48.0000 </r>
       <r>   -17.3027     0.0000    48.0000 </r>
       <r>   -17.0959     0.0000    48.0000 </r>
       <r>   -16.8892     0.0000    48.0000 </r>
       <r>   -16.6824     0.0000    48.0000 </r>
       <r>   -16.4756     0.0000    48.0000 </r>
       <r>   -16.2688     0.0000    48.0000 </r>
       <r>   -16.0621     0.0000    48.0000 </r>
       <r>   -15.8553     0.0000    48.0000 </r>
       <r>   -15.6485     0.0000    48.0000 </r>
       <r>   -15.4417     0.0000    48.0000 </r>
       <r>   -15.2350     0.0000    48.0000 </r>
       <r>   -15.0282     0.0000    48.0000 </r>
       <r>   -14.8214     0.0000    48.0000 </r>
       <r>   -14.6146     0.0000    48.0000 </r>
       <r>   -14.4079     0.0000    48.0000 </r>
       <r>   -14.2011     0.0000    48.0000 </r>
       <r>   -13.9943     0.0000    48.0000 </r>
       <r>   -13.7875     0.0000    48.0000 </r>
       <r>   -13.5808     0.0000    48.0000 </r>
       <r>   -13.3740     0.0000    48.0000 </r>
       <r>   -13.1672     0.0000    48.0000 </r>
       <r>   -12.9604     0.0000    48.0000 </r>
       <r>   -12.7537     0.0000    48.0000 </r>
       <r>   -12.5469     0.0000    48.0000 </r>
       <r>   -12.3401     0.0000    48.0000 </r>
       <r>   -12.1333     0.0000    48.0000 </r>
       <r>   -11.9266     0.0000    48.0000 </r>
       <r>   -11.7198     0.0000    48.0000 </r>
       <r>   -11.5130     0.0000    48.0000 </r>
       <r>   -11.3062     0.0000    48.0000 </r>
       <r>   -11.0995     0.0000    48.0000 </r>
       <r>   -10.8927     0.0000    48.0000 </r>
       <r>   -10.6859     0.0000    48.0000 </r>
       <r>   -10.4791     0.0000    48.0000 </r>
       <r>   -10.2724     0.0000    48.0000 </r>
       <r>   -10.0656     0.0000    48.0000 </r>
       <r>    -9.8588     0.0000    48.0000 </r>
       <r>    -9.6520     0.0000    48.0000 </r>
       <r>    -9.4453     0.0000    48.0000 </r>
       <r>    -9.2385     0.0000    48.0000 </r>
       <r>    -9.0317     0.0000    48.0000 </r>
       <r>    -8.8249     0.0000    48.0000 </r>
       <r>    -8.6182     0.0000    48.0000 </r>
       <r>    -8.4114     0.0000    48.0000 </r>
       <r>    -8.2046     0.0000    48.0000 </r>
       <r>    -7.9978     0.0000    48.0000 </r>
       <r>    -7.7911     0.0000    48.0000 </r>
       <r>    -7.5843     0.0000    48.0000 </r>
       <r>    -7.3775     0.0000    48.0000 </r>
       <r>    -7.1707     0.0000    48.0000 </r>
       <r>    -6.9640     0.0000    48.0000 </r>
       <r>    -6.7572     0.0000    48.0000 </r>
       <r>    -6.5504     0.0000    48.0000 </r>
       <r>    -6.3436     0.0000    48.0000 </r>
       <r>    -6.1369     0.0000    48.0000 </r>
       <r>    -5.9301     0.0000    48.0000 </r>
       <r>    -5.7233     0.0000    48.0000 </r>
       <r>    -5.5165     0.0000    48.0000 </r>
       <r>    -5.3098     0.0000    48.0000 </r>
       <r>    -5.1030     0.0000    48.0000 </r>
       <r>    -4.8962     0.0000    48.0000 </r>
       <r>    -4.6894     0.0000    48.0000 </r>
       <r>    -4.4827     0.0000    48.0000 </r>
       <r>    -4.2759     0.0000    48.0000 </r>
       <r>    -4.0691     0.0000    48.0000 </r>
       <r>    -3.8623     0.0000    48.0000 </r>
       <r>    -3.6556     0.0000    48.0000 </r>
       <r>    -3.4488     0.0000    48.0000 </r>
       <r>    -3.2420     0.0000    48.0000 </r>
       <r>    -3.0352     0.0000    48.0000 </r>
       <r>    -2.8285     0.0000    48.0000 </r>
       <r>    -2.6217     0.0000    48.0000 </r>
       <r>    -2.4149     0.0000    48.0000 </r>
       <r>    -2.2081     0.0000    48.0000 </r>
       <r>    -2.0014     0.0000    48.0000 </r>
       <r>    -1.7946    -0.0000    48.0000 </r>
       <r>    -1.5878    -0.0000    48.0000 </r>
       <r>    -1.3810    -0.0000    48.0000 </r>
       <r>    -1.1743    -0.0000    48.0000 </r>
       <r>    -0.9675    -0.0000    48.0000 </r>
       <r>    -0.7607    -0.0000    48.0000 </r>
       <r>    -0.5540    -0.0003    47.9999 </r>
       <r>    -0.3472    -0.0094    47.9980 </r>
       <r>    -0.1404     0.0079    47.9996 </r>
       <r>     0.0664     0.4916    48.1013 </r>
       <r>     0.2731     1.2148    48.3525 </r>
       <r>     0.4799     1.2697    48.6150 </r>
       <r>     0.6867     1.8989    49.0077 </r>
       <r>     0.8935     1.8135    49.3827 </r>
       <r>     1.1002     2.0825    49.8133 </r>
       <r>     1.3070     3.1878    50.4724 </r>
       <r>     1.5138     3.4097    51.1775 </r>
       <r>     1.7206     3.9414    51.9924 </r>
       <r>     1.9273     4.4190    52.9062 </r>
       <r>     2.1341     4.8321    53.9053 </r>
       <r>     2.3409     5.8452    55.1140 </r>
       <r>     2.5477     8.7884    56.9312 </r>
       <r>     2.7544    15.2151    60.0773 </r>
       <r>     2.9612    20.7040    64.3584 </r>
       <r>     3.1680    24.0519    69.3317 </r>
       <r>     3.3748    26.5178    74.8149 </r>
       <r>     3.5815    29.8226    80.9814 </r>
       <r>     3.7883    30.8760    87.3658 </r>
       <r>     3.9951    32.3263    94.0501 </r>
       <r>     4.2019    30.8576   100.4306 </r>
       <r>     4.4086    28.0476   106.2302 </r>
       <r>     4.6154    28.7434   112.1736 </r>
       <r>     4.8222    33.0185   119.0010 </r>
       <r>     5.0290    37.6318   126.7823 </r>
       <r>     5.2357    41.9183   135.4500 </r>
       <r>     5.4425    40.7555   143.8772 </r>
       <r>     5.6493    39.3036   152.0041 </r>
       <r>     5.8561    40.3546   160.3484 </r>
       <r>     6.0628    41.2391   168.8756 </r>
       <r>     6.2696    41.9489   177.5496 </r>
       <r>     6.4764    40.8477   185.9959 </r>
       <r>     6.6832    37.5095   193.7519 </r>
       <r>     6.8899    32.9832   200.5720 </r>
       <r>     7.0967    28.4798   206.4609 </r>
       <r>     7.3035    23.9221   211.4074 </r>
       <r>     7.5103    19.8975   215.5217 </r>
       <r>     7.7170    19.5795   219.5702 </r>
       <r>     7.9238    20.5083   223.8108 </r>
       <r>     8.1306    23.0076   228.5682 </r>
       <r>     8.3374    25.1634   233.7714 </r>
       <r>     8.5441    20.0433   237.9158 </r>
       <r>     8.7509     9.2018   239.8185 </r>
       <r>     8.9577     1.0840   240.0426 </r>
       <r>     9.1645    -0.1893   240.0035 </r>
       <r>     9.3712    -0.0168   240.0000 </r>
       <r>     9.5780    -0.0002   240.0000 </r>
       <r>     9.7848    -0.0000   240.0000 </r>
       <r>     9.9916    -0.0000   240.0000 </r>
       <r>    10.1983    -0.0000   240.0000 </r>
       <r>    10.4051     0.0000   240.0000 </r>
       <r>    10.6119     0.0000   240.0000 </r>
       <r>    10.8187     0.0000   240.0000 </r>
       <r>    11.0254     0.0000   240.0000 </r>
       <r>    11.2322     0.0000   240.0000 </r>
       <r>    11.4390     0.0000   240.0000 </r>
       <r>    11.6458     0.0000   240.0000 </r>
      </set>
     </set>
    </array>
   </total>
  </dos>
 </calculation>
 <structure name="finalpos" >
  <crystal>
   <varray name="basis" >
    <v>      -3.11864362      -3.08125887      -3.11583930 </v>
    <v>       1.54549670       1.60781062      -7.84198579 </v>
    <v>       7.95187928      -7.91758464      -1.49996736 </v>
   </varray>
   <i name="volume">    464.11985783 </i>
   <varray name="rec_basis" >
    <v>      -0.13897541      -0.12936385      -0.05391219 </v>
    <v>       0.04319603       0.06346344      -0.10599401 </v>
    <v>       0.06285632      -0.06306965      -0.00054321 </v>
   </varray>
  </crystal>
  <varray name="positions" >
   <v>       0.96424753       0.93521735       0.39916998 </v>
   <v>       0.63414113       0.26915957       0.40296724 </v>
   <v>       0.48929917       0.00144951      -0.00843226 </v>
   <v>      -0.01075292      -0.00712152      -0.00483177 </v>
   <v>       0.13775885       0.17379069       0.79461892 </v>
   <v>       0.02869863       0.06487410       0.60158795 </v>
   <v>       0.90696095       0.79683700       0.20070557 </v>
   <v>       0.81228687       0.59233758       0.40143351 </v>
   <v>       0.73375804       0.46591752       0.19912801 </v>
   <v>       0.66998074       0.34080982      -0.00772252 </v>
   <v>       0.39144233       0.73312764       0.61210093 </v>
   <v>       0.13528148       0.27408625       0.40301015 </v>
   <v>       0.84743229       0.65678437       0.00129263 </v>
   <v>       0.77619059       0.87581426       0.79110281 </v>
   <v>       0.56694459       0.13578725       0.19388713 </v>
   <v>       0.40776661       0.79095501       0.19583154 </v>
   <v>       0.30714225       0.60221653       0.40651867 </v>
   <v>       0.88410150       0.72224141       0.59705142 </v>
   <v>       0.46821191       0.92800390       0.41134964 </v>
   <v>       0.18225439       0.33628822      -0.00651304 </v>
   <v>       0.26104018       0.55792910       0.79786336 </v>
   <v>       0.20773308       0.39114388       0.60679994 </v>
   <v>       0.06447621       0.14644956       0.20258008 </v>
   <v>       0.78876161       0.51253302       0.79754253 </v>
   <v>       0.69405022       0.41520266       0.61207477 </v>
   <v>       0.60780038       0.22337564       0.79412074 </v>
   <v>       0.53098821       0.07445586       0.60583106 </v>
   <v>       0.34685220       0.65125437       0.00073220 </v>
   <v>       0.23181766       0.47241277       0.19819881 </v>
  </varray>
 </structure>
</modeling>
