Nb - Mo - Ta - Ti - V SQS               
           1
    -3.160000   -3.160000   -3.160000
     1.580000    1.580000   -7.900000
     7.900000   -7.900000   -1.580000
   Nb   Mo   Ta   Ti   V 
   6   6   5   6   6
Direct configuration=     1
   0.96666667  0.93333333  0.40000000
   0.63333333  0.26666667  0.40000000
   0.50000000  0.00000000  0.00000000
   0.00000000  0.00000000  0.00000000
   0.10000000  0.20000000  0.80000000
   0.03333333  0.06666667  0.60000000
   0.90000000  0.80000000  0.20000000
   0.80000000  0.60000000  0.40000000
   0.73333333  0.46666667  0.20000000
   0.66666667  0.33333333  0.00000000
   0.36666667  0.73333333  0.60000000
   0.13333333  0.26666667  0.40000000
   0.83333333  0.66666667  0.00000000
   0.93333333  0.86666667  0.80000000
   0.56666667  0.13333333  0.20000000
   0.40000000  0.80000000  0.20000000
   0.30000000  0.60000000  0.40000000
   0.86666667  0.73333333  0.60000000
   0.46666667  0.93333333  0.40000000
   0.16666667  0.33333333  0.00000000
   0.26666667  0.53333333  0.80000000
   0.20000000  0.40000000  0.60000000
   0.06666667  0.13333333  0.20000000
   0.76666667  0.53333333  0.80000000
   0.70000000  0.40000000  0.60000000
   0.60000000  0.20000000  0.80000000
   0.53333333  0.06666667  0.60000000
   0.33333333  0.66666667  0.00000000
   0.23333333  0.46666667  0.20000000
Nb - Mo - Ta - Ti - V SQS               
           1
    -3.109615   -3.099800   -3.120807
     1.556047    1.562481   -7.815837
     7.837914   -7.820523   -1.553255
   Nb   Mo   Ta   Ti   V 
   6   6   5   6   6
Direct configuration=     2
   0.96379786  0.93314280  0.39975353
   0.63179143  0.26687681  0.40113566
   0.49923492 -0.00036805 -0.00516866
  -0.00267179  0.00044294  0.00063195
   0.10113690  0.19899075  0.79803035
   0.03273726  0.06812455  0.59882120
   0.90219772  0.79791486  0.20075752
   0.80306442  0.59549692  0.40000246
   0.73244792  0.46750094  0.19848086
   0.66413293  0.33831263 -0.00189271
   0.36891820  0.73139344  0.60200909
   0.13317881  0.27013120  0.40005629
   0.83716005  0.66277578  0.00189642
   0.93012496  0.86879095  0.79944544
   0.56461461  0.13558823  0.19832997
   0.40372773  0.79447202  0.19740700
   0.30005913  0.60052029  0.40170684
   0.86599217  0.73115140  0.59853126
   0.46587373  0.93212494  0.40401700
   0.16855568  0.33521693 -0.00004783
   0.26724149  0.53217719  0.79862645
   0.20046859  0.39676744  0.60028460
   0.06657580  0.13795806  0.20181204
   0.76785108  0.53066510  0.80065229
   0.69698306  0.40367778  0.60221341
   0.60143076  0.20430014  0.79916543
   0.53577267  0.06698713  0.60292856
   0.33312521  0.66346774  0.00017175
   0.23114336  0.46873243  0.20024185
Nb - Mo - Ta - Ti - V SQS               
           1
    -3.112461   -3.103200   -3.123021
     1.557400    1.563470   -7.820591
     7.841421   -7.825013   -1.554766
   Nb   Mo   Ta   Ti   V 
   6   6   5   6   6
Direct configuration=     3
   0.96396267  0.93315339  0.39976768
   0.63187981  0.26686462  0.40107098
   0.49927973 -0.00034699 -0.00487403
  -0.00251840  0.00041734  0.00059602
   0.10107187  0.19904856  0.79814260
   0.03277179  0.06804125  0.59888838
   0.90207122  0.79803416  0.20071431
   0.80288812  0.59575443  0.40000231
   0.73249909  0.46745323  0.19856746
   0.66427910  0.33802801 -0.00178486
   0.36878841  0.73150442  0.60189454
   0.13318789  0.26993331  0.40005300
   0.83693968  0.66299836  0.00178828
   0.93030948  0.86866930  0.79947711
   0.56473291  0.13545927  0.19842518
   0.40351371  0.79478820  0.19755479
   0.30005547  0.60049054  0.40160954
   0.86603103  0.73127598  0.59861505
   0.46591851  0.93219378  0.40378809
   0.16844729  0.33510955 -0.00004522
   0.26720864  0.53224331  0.79870474
   0.20044143  0.39695211  0.60026844
   0.06658099  0.13769386  0.20170865
   0.76778277  0.53081761  0.80061513
   0.69715621  0.40346735  0.60208727
   0.60134899  0.20405471  0.79921285
   0.53563208  0.06696901  0.60276154
   0.33313694  0.66365042  0.00016204
   0.23126924  0.46861421  0.20022810
Nb - Mo - Ta - Ti - V SQS               
           1
    -3.111140   -3.093744   -3.129324
     1.557400    1.569000   -7.847264
     7.885393   -7.854815   -1.551737
   Nb   Mo   Ta   Ti   V 
   6   6   5   6   6
Direct configuration=     4
   0.96168378  0.93323782  0.39956366
   0.63079827  0.26698464  0.40191223
   0.49867656 -0.00083761 -0.00925233
  -0.00451630  0.00091816  0.00110061
   0.10292655  0.19771508  0.79667931
   0.03237746  0.06899023  0.59805797
   0.90349611  0.79668452  0.20116870
   0.80489440  0.59279496  0.40018208
   0.73194639  0.46756580  0.19766305
   0.66206346  0.34188791 -0.00349428
   0.37092308  0.72997761  0.60393415
   0.13300079  0.27219319  0.40021355
   0.83996958  0.66042715  0.00268451
   0.92720003  0.87019973  0.79889234
   0.56306480  0.13693339  0.19713617
   0.40589915  0.79142338  0.19585585
   0.30041847  0.60068248  0.40297167
   0.86541394  0.72956731  0.59773489
   0.46542436  0.93115107  0.40670253
   0.17017465  0.33652918 -0.00022213
   0.26776683  0.53138662  0.79764901
   0.20085712  0.39445789  0.60054638
   0.06646235  0.14118197  0.20302069
   0.76835522  0.52898339  0.80107793
   0.69450824  0.40642420  0.60412414
   0.60231282  0.20779423  0.79829256
   0.53759075  0.06692088  0.60557228
   0.33332198  0.66090585 -0.00005642
   0.22965582  0.47025227  0.20028890
Nb - Mo - Ta - Ti - V SQS               
           1
    -3.109206   -3.079900   -3.138553
     1.557400    1.577096   -7.886314
     7.949768   -7.898447   -1.547304
   Nb   Mo   Ta   Ti   V 
   6   6   5   6   6
Direct configuration=     5
   0.95834306  0.93336537  0.39926469
   0.62921604  0.26716232  0.40313732
   0.49777749 -0.00155463 -0.01563293
  -0.00744312  0.00165319  0.00183463
   0.10564092  0.19576471  0.79454779
   0.03179559  0.07037549  0.59684812
   0.90558743  0.79471236  0.20183120
   0.80783849  0.58847219  0.40044404
   0.73113303  0.46773071  0.19634481
   0.65880614  0.34752436 -0.00598490
   0.37406048  0.72774630  0.60690703
   0.13272480  0.27549163  0.40044850
   0.84441604  0.65666938  0.00399145
   0.92263918  0.87243895  0.79803864
   0.56061393  0.13908726  0.19525737
   0.40939267  0.78650739  0.19338030
   0.30095512  0.60096257  0.40495689
   0.86450818  0.72707451  0.59645103
   0.46471161  0.92963180  0.41094844
   0.17270412  0.33859747 -0.00047788
   0.26858204  0.53013478  0.79611061
   0.20146995  0.39081727  0.60095042
   0.06628951  0.14627326  0.20493422
   0.76919774  0.52630574  0.80175181
   0.69063160  0.41074549  0.60709169
   0.60371823  0.21324920  0.79695419
   0.54047141  0.06684824  0.60966943
   0.33359526  0.65690006 -0.00037603
   0.22728974  0.47264596  0.20037710
Nb - Mo - Ta - Ti - V SQS               
           1
    -3.108965   -3.078179   -3.139700
     1.557400    1.578102   -7.891168
     7.957772   -7.903872   -1.546752
   Nb   Mo   Ta   Ti   V 
   6   6   5   6   6
Direct configuration=     6
   0.95792693  0.93338195  0.39922747
   0.62901954  0.26718476  0.40328846
   0.49766282 -0.00164352 -0.01642092
  -0.00780734  0.00174489  0.00192504
   0.10597823  0.19552257  0.79428473
   0.03172242  0.07054698  0.59669877
   0.90584839  0.79446785  0.20191308
   0.80820576  0.58793657  0.40047639
   0.73103115  0.46775123  0.19618197
   0.65839872  0.34822248 -0.00629238
   0.37445274  0.72746961  0.60727426
   0.13269011  0.27589988  0.40047770
   0.84497077  0.65620338  0.00415301
   0.92207061  0.87271710  0.79793294
   0.56030764  0.13935427  0.19502529
   0.40982723  0.78589806  0.19307464
   0.30102278  0.60099723  0.40520208
   0.86439515  0.72676618  0.59629226
   0.46462492  0.92944422  0.41147255
   0.17301871  0.33885279 -0.00050909
   0.26868303  0.52997958  0.79592065
   0.20154690  0.39036663  0.60100013
   0.06626818  0.14690345  0.20517080
   0.76930329  0.52597422  0.80183493
   0.69014964  0.41128135  0.60745802
   0.60389193  0.21392381  0.79678940
   0.54083192  0.06683880  0.61017560
   0.33362967  0.65640428 -0.00041572
   0.22699485  0.47294274  0.20038792
Nb - Mo - Ta - Ti - V SQS               
           1
    -3.117000   -3.083905   -3.144086
     1.559668    1.584703   -7.904045
     7.966590   -7.911057   -1.544649
   Nb   Mo   Ta   Ti   V 
   6   6   5   6   6
Direct configuration=     7
   0.95784851  0.93366801  0.39896511
   0.62955020  0.26727946  0.40318206
   0.49823515 -0.00242919 -0.01734880
  -0.00902453  0.00215395  0.00228421
   0.10792126  0.19427754  0.79460082
   0.03158121  0.07005780  0.59657045
   0.90480149  0.79532741  0.20170243
   0.80733273  0.58942861  0.40048493
   0.73094383  0.46676797  0.19716780
   0.65862427  0.34785560 -0.00679881
   0.37474336  0.72702725  0.60809298
   0.13240036  0.27483701  0.40086029
   0.84477923  0.65806793  0.00311043
   0.92013061  0.87300506  0.79769422
   0.56120177  0.13840802  0.19442873
   0.40894975  0.78757110  0.19357416
   0.30134899  0.60102417  0.40543937
   0.86511387  0.72655143  0.59666390
   0.46480157  0.92890434  0.41133072
   0.17387240  0.33813014 -0.00092106
   0.26824101  0.53028206  0.79586026
   0.20201121  0.38997706  0.60080495
   0.06509205  0.14692791  0.20518349
   0.76914079  0.52583104  0.80189964
   0.68896589  0.41218670  0.60834521
   0.60431575  0.21529402  0.79595548
   0.54165285  0.06614476  0.61164974
   0.33460613  0.65567591 -0.00112495
   0.22748495  0.47310025  0.20034225
Nb - Mo - Ta - Ti - V SQS               
           1
    -3.133149   -3.095413   -3.152902
     1.564227    1.597968   -7.929927
     7.984312   -7.925499   -1.540423
   Nb   Mo   Ta   Ti   V 
   6   6   5   6   6
Direct configuration=     8
   0.95769130  0.93424168  0.39843847
   0.63061453  0.26746964  0.40296862
   0.49938155 -0.00400560 -0.01921212
  -0.01146511  0.00297418  0.00300526
   0.11181739  0.19178105  0.79523537
   0.03129741  0.06907631  0.59631250
   0.90270243  0.79705113  0.20127965
   0.80558319  0.59242136  0.40050263
   0.73076856  0.46479601  0.19914663
   0.65907587  0.34711939 -0.00781579
   0.37532648  0.72614047  0.60973667
   0.13181850  0.27270488  0.40162781
   0.84439602  0.66180769  0.00101804
   0.91623972  0.87358163  0.79721451
   0.56299368  0.13650982  0.19323069
   0.40719185  0.79092726  0.19457779
   0.30200349  0.60107854  0.40591590
   0.86655547  0.72612122  0.59741020
   0.46515523  0.92782128  0.41104570
   0.17558359  0.33668060 -0.00174838
   0.26735469  0.53088861  0.79573905
   0.20294192  0.38919566  0.60041296
   0.06273318  0.14697641  0.20520865
   0.76881479  0.52554375  0.80202943
   0.68659327  0.41400287  0.61012669
   0.60516643  0.21804249  0.79428197
   0.54329989  0.06475374  0.61460944
   0.33656330  0.65421480 -0.00254912
   0.22846804  0.47341644  0.20025077
Nb - Mo - Ta - Ti - V SQS               
           1
    -3.128842   -3.092343   -3.150550
     1.563011    1.594430   -7.923023
     7.979585   -7.921647   -1.541550
   Nb   Mo   Ta   Ti   V 
   6   6   5   6   6
Direct configuration=     9
   0.95773303  0.93408934  0.39857858
   0.63033183  0.26741900  0.40302533
   0.49907786 -0.00358655 -0.01871598
  -0.01081722  0.00275643  0.00281339
   0.11078302  0.19244383  0.79506652
   0.03137310  0.06933720  0.59638132
   0.90325962  0.79659344  0.20139210
   0.80604712  0.59162633  0.40049762
   0.73081519  0.46531973  0.19862018
   0.65895633  0.34731513 -0.00754500
   0.37517147  0.72637578  0.60929922
   0.13197343  0.27327141  0.40142385
   0.84449730  0.66081431  0.00157451
   0.91727316  0.87342901  0.79734242
   0.56251847  0.13701419  0.19354974
   0.40765770  0.79003550  0.19431028
   0.30182953  0.60106393  0.40578900
   0.86617251  0.72623523  0.59721150
   0.46506163  0.92810908  0.41112170
   0.17512962  0.33706569 -0.00152807
   0.26758998  0.53072757  0.79577129
   0.20269499  0.38940324  0.60051735
   0.06335971  0.14696383  0.20520212
   0.76890143  0.52562011  0.80199495
   0.68722262  0.41352029  0.60965239
   0.60494014  0.21731230  0.79472699
   0.54286213  0.06512268  0.61382166
   0.33604413  0.65460303 -0.00216995
   0.22820685  0.47333230  0.20027500
Nb - Mo - Ta - Ti - V SQS               
           1
    -3.125655   -3.086847   -3.143006
     1.559966    1.595029   -7.905977
     7.959357   -7.899211   -1.534043
   Nb   Mo   Ta   Ti   V 
   6   6   5   6   6
Direct configuration=    10
   0.95783187  0.93428721  0.39837021
   0.63054173  0.26746540  0.40302478
   0.49932531 -0.00418743 -0.01945495
  -0.01171037  0.00305417  0.00303438
   0.11256453  0.19133414  0.79533231
   0.03136881  0.06880773  0.59639248
   0.90234620  0.79728322  0.20115374
   0.80545689  0.59273675  0.40049676
   0.73051281  0.46520671  0.19915921
   0.65941571  0.34704434 -0.00788439
   0.37535286  0.72598328  0.60996946
   0.13180519  0.27254958  0.40170726
   0.84446933  0.66179831  0.00093512
   0.91528813  0.87387080  0.79698136
   0.56304030  0.13620813  0.19306765
   0.40702410  0.79117428  0.19466959
   0.30198744  0.60118936  0.40588990
   0.86703971  0.72604221  0.59751872
   0.46518173  0.92769095  0.41098896
   0.17565583  0.33658801 -0.00189802
   0.26696666  0.53109467  0.79572028
   0.20314940  0.38902799  0.60033375
   0.06235770  0.14701719  0.20529767
   0.76877855  0.52540593  0.80209894
   0.68630819  0.41434484  0.61043332
   0.60535607  0.21850652  0.79399718
   0.54359354  0.06445729  0.61516530
   0.33701384  0.65398097 -0.00272121
   0.22864463  0.47337076  0.20022025
Nb - Mo - Ta - Ti - V SQS               
           1
    -3.122279   -3.081025   -3.135016
     1.556741    1.595663   -7.887924
     7.937934   -7.875450   -1.526093
   Nb   Mo   Ta   Ti   V 
   6   6   5   6   6
Direct configuration=    11
   0.95793672  0.93449714  0.39814900
   0.63076439  0.26751471  0.40302424
   0.49958703 -0.00482509 -0.02023979
  -0.01265745  0.00336986  0.00326898
   0.11445367  0.19015733  0.79561456
   0.03136394  0.06824593  0.59640420
   0.90137761  0.79801476  0.20090065
   0.80483148  0.59391479  0.40049603
   0.73019229  0.46508682  0.19973154
   0.65990264  0.34675709 -0.00824479
   0.37554539  0.72556705  0.61068113
   0.13162645  0.27178370  0.40200801
   0.84443991  0.66284224  0.00025639
   0.91318266  0.87433884  0.79659774
   0.56359307  0.13535290  0.19255559
   0.40635290  0.79238248  0.19505133
   0.30215506  0.60132252  0.40599710
   0.86795962  0.72583777  0.59784506
   0.46530880  0.92724728  0.41084791
   0.17621349  0.33608123 -0.00229091
   0.26630569  0.53148397  0.79566610
   0.20363107  0.38862994  0.60013876
   0.06129494  0.14707351  0.20539898
   0.76864813  0.52517865  0.80220930
   0.68533915  0.41521963  0.61126267
   0.60579758  0.21977362  0.79322255
   0.54436966  0.06375184  0.61659208
   0.33804177  0.65332111 -0.00330660
   0.22910897  0.47341170  0.20016219
Nb - Mo - Ta - Ti - V SQS               
           1
    -3.124243   -3.081009   -3.134104
     1.557066    1.597640   -7.886929
     7.936603   -7.871056   -1.523628
   Nb   Mo   Ta   Ti   V 
   6   6   5   6   6
Direct configuration=    12
   0.95812307  0.93448762  0.39816960
   0.63040259  0.26747211  0.40324136
   0.49904408 -0.00489196 -0.02053499
  -0.01247967  0.00337509  0.00315030
   0.11534822  0.18968074  0.79562114
   0.03166877  0.06794264  0.59661113
   0.90118744  0.79808264  0.20075633
   0.80484794  0.59396671  0.40056158
   0.72985505  0.46594329  0.19942319
   0.66035864  0.34675444 -0.00825591
   0.37560012  0.72554761  0.61099309
   0.13177945  0.27183345  0.40202136
   0.84477837  0.66212155  0.00033083
   0.91201173  0.87471568  0.79619838
   0.56309504  0.13523391  0.19244610
   0.40618647  0.79242891  0.19498704
   0.30201158  0.60148185  0.40592282
   0.86858223  0.72564844  0.59795969
   0.46532039  0.92722131  0.41087332
   0.17611404  0.33616584 -0.00242495
   0.26567950  0.53177285  0.79562676
   0.20379999  0.38847677  0.60013716
   0.06112256  0.14720726  0.20552168
   0.76859373  0.52511915  0.80229505
   0.68533796  0.41546074  0.61155096
   0.60593502  0.22023938  0.79298755
   0.54456484  0.06337655  0.61720911
   0.33854264  0.65317453 -0.00347711
   0.22925488  0.47329424  0.20009742
Nb - Mo - Ta - Ti - V SQS               
           1
    -3.130133   -3.080958   -3.131367
     1.558043    1.603569   -7.883945
     7.932611   -7.857872   -1.516235
   Nb   Mo   Ta   Ti   V 
   6   6   5   6   6
Direct configuration=    13
   0.95868199  0.93445918  0.39823150
   0.62931772  0.26734415  0.40389281
   0.49741505 -0.00509289 -0.02142114
  -0.01194660  0.00339087  0.00279419
   0.11803077  0.18825148  0.79564109
   0.03258306  0.06703300  0.59723215
   0.90061693  0.79828615  0.20032319
   0.80489744  0.59412246  0.40075834
   0.72884398  0.46851241  0.19849796
   0.66172631  0.34674675 -0.00828914
   0.37576474  0.72548937  0.61192932
   0.13223841  0.27198278  0.40206148
   0.84579286  0.65995974  0.00055410
   0.90849949  0.87584546  0.79499954
   0.56160097  0.13487666  0.19211727
   0.40568722  0.79256811  0.19479407
   0.30158128  0.60195974  0.40569990
   0.87044961  0.72508080  0.59830385
   0.46535514  0.92714341  0.41094957
   0.17581562  0.33641956 -0.00282721
   0.26380160  0.53263912  0.79550857
   0.20430644  0.38801739  0.60013238
   0.06060589  0.14760841  0.20588992
   0.76843063  0.52494064  0.80255236
   0.68533510  0.41618408  0.61241623
   0.60634738  0.22163667  0.79228249
   0.54515081  0.06225089  0.61906085
   0.34004450  0.65273503 -0.00398869
   0.22969230  0.47294191  0.19990307
Nb - Mo - Ta - Ti - V SQS               
           1
    -3.131882   -3.080943   -3.130555
     1.558333    1.605329   -7.883059
     7.931425   -7.853959   -1.514041
   Nb   Mo   Ta   Ti   V 
   6   6   5   6   6
Direct configuration=    14
   0.95884782  0.93445082  0.39824996
   0.62899614  0.26730601  0.40408627
   0.49693132 -0.00515282 -0.02168468
  -0.01178862  0.00339562  0.00268842
   0.11882613  0.18782767  0.79564718
   0.03285429  0.06676316  0.59741673
   0.90044755  0.79834646  0.20019442
   0.80491227  0.59416871  0.40081683
   0.72854443  0.46927479  0.19822313
   0.66213202  0.34674468 -0.00829886
   0.37581399  0.72547214  0.61220756
   0.13237463  0.27202718  0.40207347
   0.84609324  0.65931823  0.00062036
   0.90745736  0.87618021  0.79464298
   0.56115748  0.13477037  0.19201935
   0.40553907  0.79260934  0.19473668
   0.30145368  0.60210151  0.40563365
   0.87100357  0.72491262  0.59840628
   0.46536546  0.92712029  0.41097222
   0.17572699  0.33649481 -0.00294677
   0.26324473  0.53289594  0.79547332
   0.20445654  0.38788111  0.60013097
   0.06045291  0.14772742  0.20599933
   0.76838231  0.52488764  0.80262880
   0.68533488  0.41639882  0.61267344
   0.60646982  0.22205146  0.79207313
   0.54532513  0.06191692  0.61961111
   0.34048966  0.65260480 -0.00414059
   0.22982187  0.47283740  0.19984533
Nb - Mo - Ta - Ti - V SQS               
           1
    -3.135548   -3.082904   -3.133804
     1.559036    1.608172   -7.891913
     7.935866   -7.856441   -1.513243
   Nb   Mo   Ta   Ti   V 
   6   6   5   6   6
Direct configuration=    15
   0.95890074  0.93439093  0.39836520
   0.62886806  0.26744310  0.40424550
   0.49686457 -0.00534741 -0.02180371
  -0.01197584  0.00312813  0.00241959
   0.11957529  0.18756852  0.79555442
   0.03336395  0.06670830  0.59743584
   0.90058781  0.79840097  0.20016224
   0.80503358  0.59384109  0.40081292
   0.72852358  0.46916217  0.19815739
   0.66208756  0.34652548 -0.00824690
   0.37609430  0.72578342  0.61235687
   0.13206864  0.27237626  0.40205140
   0.84625370  0.65931360  0.00058447
   0.90587566  0.87610471  0.79475679
   0.56088330  0.13503842  0.19194393
   0.40519468  0.79265372  0.19434462
   0.30142942  0.60210645  0.40568041
   0.87171079  0.72463872  0.59832782
   0.46546979  0.92728421  0.41115907
   0.17592554  0.33643735 -0.00297804
   0.26232019  0.53340214  0.79543991
   0.20473054  0.38782042  0.60018959
   0.06014546  0.14804775  0.20602856
   0.76838223  0.52491027  0.80269049
   0.68579955  0.41632418  0.61276080
   0.60646977  0.22223792  0.79213705
   0.54535439  0.06152337  0.61996059
   0.34091942  0.65266710 -0.00427855
   0.22981002  0.47284204  0.19974172
Nb - Mo - Ta - Ti - V SQS               
           1
    -3.138767   -3.084626   -3.136658
     1.559654    1.610670   -7.899690
     7.939766   -7.858620   -1.512543
   Nb   Mo   Ta   Ti   V 
   6   6   5   6   6
Direct configuration=    16
   0.95894721  0.93433839  0.39846636
   0.62875573  0.26756336  0.40438528
   0.49680597 -0.00551811 -0.02190822
  -0.01214019  0.00289346  0.00218355
   0.12023259  0.18734114  0.79547303
   0.03381114  0.06666015  0.59745267
   0.90071088  0.79844878  0.20013401
   0.80514001  0.59355369  0.40080945
   0.72850526  0.46906338  0.19809966
   0.66204856  0.34633319 -0.00820131
   0.37634029  0.72605649  0.61248801
   0.13180015  0.27268250  0.40203205
   0.84639448  0.65930954  0.00055298
   0.90448788  0.87603857  0.79485654
   0.56064270  0.13527357  0.19187773
   0.40489240  0.79269264  0.19400042
   0.30140815  0.60211080  0.40572145
   0.87233130  0.72439839  0.59825898
   0.46556138  0.92742802  0.41132313
   0.17609975  0.33638694 -0.00300548
   0.26150898  0.53384624  0.79541055
   0.20497097  0.38776716  0.60024106
   0.05987571  0.14832878  0.20605424
   0.76838217  0.52493012  0.80274465
   0.68620728  0.41625869  0.61283753
   0.60646974  0.22240149  0.79219317
   0.54538017  0.06117814  0.62026735
   0.34129645  0.65272172 -0.00439960
   0.22979959  0.47284611  0.19965078
Nb - Mo - Ta - Ti - V SQS               
           1
    -3.138672   -3.083506   -3.136413
     1.558373    1.611191   -7.898925
     7.935697   -7.853897   -1.510432
   Nb   Mo   Ta   Ti   V 
   6   6   5   6   6
Direct configuration=    17
   0.95899674  0.93429385  0.39853344
   0.62874328  0.26767317  0.40447127
   0.49682179 -0.00563618 -0.02192973
  -0.01237935  0.00267558  0.00199569
   0.12064994  0.18722239  0.79539986
   0.03408414  0.06666511  0.59747258
   0.90077807  0.79847251  0.20012522
   0.80521959  0.59332106  0.40076692
   0.72848435  0.46889025  0.19807924
   0.66197191  0.34617692 -0.00816891
   0.37662774  0.72629547  0.61255735
   0.13154533  0.27294908  0.40202403
   0.84654164  0.65936402  0.00053326
   0.90318632  0.87596509  0.79494887
   0.56054569  0.13550298  0.19183456
   0.40472426  0.79265887  0.19374373
   0.30146713  0.60211689  0.40573316
   0.87288310  0.72417804  0.59818619
   0.46563022  0.92752777  0.41145755
   0.17628310  0.33632277 -0.00302071
   0.26083894  0.53425382  0.79541157
   0.20522788  0.38771896  0.60029815
   0.05961291  0.14856010  0.20605997
   0.76837531  0.52491560  0.80277927
   0.68658911  0.41617983  0.61288038
   0.60648913  0.22250893  0.79228836
   0.54540506  0.06091510  0.62044630
   0.34155145  0.65276174 -0.00448826
   0.22977189  0.47288362  0.19958069
Nb - Mo - Ta - Ti - V SQS               
           1
    -3.138388   -3.080147   -3.135678
     1.554532    1.612753   -7.896631
     7.923489   -7.839728   -1.504099
   Nb   Mo   Ta   Ti   V 
   6   6   5   6   6
Direct configuration=    18
   0.95914540  0.93416025  0.39873478
   0.62870595  0.26800267  0.40472940
   0.49686930 -0.00599043 -0.02199431
  -0.01309700  0.00202184  0.00143169
   0.12190218  0.18686603  0.79518026
   0.03490330  0.06667997  0.59753241
   0.90097966  0.79854369  0.20009884
   0.80545839  0.59262307  0.40063918
   0.72842163  0.46837079  0.19801790
   0.66174199  0.34570805 -0.00807173
   0.37749023  0.72701247  0.61276561
   0.13078068  0.27374893  0.40200000
   0.84698318  0.65952746  0.00047411
   0.89928103  0.87574485  0.79522573
   0.56025453  0.13619127  0.19170502
   0.40421966  0.79255751  0.19297321
   0.30164408  0.60213516  0.40576833
   0.87453880  0.72351680  0.59796772
   0.46583684  0.92782709  0.41186111
   0.17683326  0.33613022 -0.00306640
   0.25882840  0.53547679  0.79541463
   0.20599877  0.38757431  0.60046954
   0.05882434  0.14925417  0.20607722
   0.76835472  0.52487206  0.80288317
   0.68773482  0.41594318  0.61300907
   0.60654733  0.22283130  0.79257410
   0.54547990  0.06012596  0.62098338
   0.34231654  0.65288175 -0.00475430
   0.22968875  0.47299614  0.19937032
Nb - Mo - Ta - Ti - V SQS               
           1
    -3.138805   -3.080198   -3.135142
     1.553636    1.613587   -7.894973
     7.921521   -7.838466   -1.502185
   Nb   Mo   Ta   Ti   V 
   6   6   5   6   6
Direct configuration=    19
   0.95928874  0.93419701  0.39871069
   0.62879841  0.26796970  0.40475610
   0.49661045 -0.00585289 -0.02189105
  -0.01316995  0.00199245  0.00138614
   0.12195726  0.18683071  0.79518275
   0.03474099  0.06668633  0.59768609
   0.90082096  0.79852891  0.20009439
   0.80543396  0.59271833  0.40058141
   0.72837701  0.46831577  0.19797503
   0.66182285  0.34563681 -0.00810174
   0.37790173  0.72718840  0.61279184
   0.13082653  0.27372316  0.40203069
   0.84717175  0.65935323  0.00051181
   0.89810054  0.87571163  0.79509740
   0.56021978  0.13620614  0.19176865
   0.40434980  0.79245213  0.19301436
   0.30179926  0.60222531  0.40571353
   0.87491819  0.72339269  0.59795716
   0.46583455  0.92784236  0.41187261
   0.17690102  0.33604383 -0.00309936
   0.25854262  0.53574403  0.79548529
   0.20627873  0.38752899  0.60054381
   0.05873655  0.14924358  0.20599911
   0.76828601  0.52483976  0.80283837
   0.68802637  0.41586799  0.61301634
   0.60664068  0.22291539  0.79267653
   0.54548920  0.06006464  0.62090232
   0.34229863  0.65292787 -0.00484788
   0.22966405  0.47303906  0.19934762
Nb - Mo - Ta - Ti - V SQS               
           1
    -3.140056   -3.080350   -3.133537
     1.550949    1.616091   -7.890001
     7.915618   -7.834679   -1.496445
   Nb   Mo   Ta   Ti   V 
   6   6   5   6   6
Direct configuration=    20
   0.95971876  0.93430731  0.39863841
   0.62907578  0.26787084  0.40483620
   0.49583396 -0.00544020 -0.02158117
  -0.01338880  0.00190425  0.00124945
   0.12212248  0.18672476  0.79519022
   0.03425407  0.06670549  0.59814724
   0.90034484  0.79848452  0.20008100
   0.80536069  0.59300410  0.40040809
   0.72824316  0.46815065  0.19784638
   0.66206541  0.34542304 -0.00819180
   0.37913622  0.72771641  0.61287061
   0.13096408  0.27364587  0.40212277
   0.84773739  0.65883050  0.00062489
   0.89455919  0.87561162  0.79471224
   0.56011551  0.13625078  0.19195955
   0.40474020  0.79213602  0.19313782
   0.30226481  0.60249581  0.40554914
   0.87605630  0.72302039  0.59792546
   0.46582769  0.92788819  0.41190713
   0.17710427  0.33578462 -0.00319829
   0.25768537  0.53654586  0.79569738
   0.20711859  0.38739310  0.60076667
   0.05847320  0.14921174  0.20576473
   0.76807987  0.52474281  0.80270392
   0.68890096  0.41564246  0.61303813
   0.60692076  0.22316779  0.79298391
   0.54551709  0.05988060  0.62065907
   0.34224490  0.65306620 -0.00512869
   0.22958994  0.47316782  0.19927954
Nb - Mo - Ta - Ti - V SQS               
           1
    -3.142558   -3.080653   -3.130325
     1.545573    1.621098   -7.880056
     7.903811   -7.827106   -1.484964
   Nb   Mo   Ta   Ti   V 
   6   6   5   6   6
Direct configuration=    21
   0.96057874  0.93452813  0.39849390
   0.62963040  0.26767325  0.40499649
   0.49428132 -0.00461441 -0.02096086
  -0.01382647  0.00172747  0.00097583
   0.12245283  0.18651284  0.79520513
   0.03328032  0.06674415  0.59907004
   0.89939271  0.79839547  0.20005411
   0.80521429  0.59357567  0.40006142
   0.72797541  0.46782002  0.19758878
   0.66255039  0.34499531 -0.00837214
   0.38160516  0.72877359  0.61302877
   0.13123911  0.27349141  0.40230701
   0.84886833  0.65778496  0.00085092
   0.88747721  0.87540937  0.79394087
   0.55990701  0.13634030  0.19234160
   0.40552077  0.79150381  0.19338473
   0.30319592  0.60303707  0.40522039
   0.87833211  0.72227591  0.59786192
   0.46581397  0.92797993  0.41197624
   0.17751061  0.33526591 -0.00339642
   0.25597139  0.53815017  0.79612225
   0.20879805  0.38712186  0.60121269
   0.05794655  0.14914761  0.20529563
   0.76766760  0.52454856  0.80243475
   0.69064985  0.41519160  0.61308172
   0.60748096  0.22367334  0.79359926
   0.54557279  0.05951207  0.62017216
   0.34213752  0.65334261 -0.00569055
   0.22944180  0.47342535  0.19914337
Nb - Mo - Ta - Ti - V SQS               
           1
    -3.143432   -3.081366   -3.130702
     1.545497    1.621744   -7.880763
     7.904603   -7.828190   -1.484447
   Nb   Mo   Ta   Ti   V 
   6   6   5   6   6
Direct configuration=    22
   0.96066633  0.93454989  0.39848637
   0.62968853  0.26766547  0.40500596
   0.49415479 -0.00454648 -0.02086077
  -0.01391087  0.00168504  0.00092618
   0.12252617  0.18645899  0.79521819
   0.03317039  0.06674143  0.59916516
   0.89937483  0.79838432  0.20005717
   0.80525821  0.59362723  0.40004321
   0.72797666  0.46777758  0.19757245
   0.66257806  0.34494747 -0.00838220
   0.38189857  0.72890439  0.61306697
   0.13130227  0.27346125  0.40233422
   0.84892701  0.65771285  0.00085801
   0.88651941  0.87539058  0.79387840
   0.55986910  0.13633300  0.19238445
   0.40552493  0.79147917  0.19340411
   0.30328694  0.60305512  0.40520904
   0.87861521  0.72219812  0.59783556
   0.46583975  0.92799267  0.41197570
   0.17756083  0.33521323 -0.00341888
   0.25581364  0.53833559  0.79616654
   0.20899526  0.38709748  0.60126206
   0.05795112  0.14910378  0.20524884
   0.76763572  0.52453580  0.80237786
   0.69084648  0.41514791  0.61307835
   0.60753438  0.22373683  0.79366213
   0.54551533  0.05952003  0.62006845
   0.34212721  0.65338408 -0.00574641
   0.22942043  0.47344051  0.19912291
Nb - Mo - Ta - Ti - V SQS               
           1
    -3.146052   -3.083504   -3.131833
     1.545268    1.623682   -7.882886
     7.906978   -7.831444   -1.482896
   Nb   Mo   Ta   Ti   V 
   6   6   5   6   6
Direct configuration=    23
   0.96092904  0.93461517  0.39846379
   0.62986290  0.26764216  0.40503438
   0.49377530 -0.00434271 -0.02056055
  -0.01416404  0.00155772  0.00077724