  29  29   0   0
  0.1679057E+02  0.5525242E-09  0.8287863E-09  0.1139058E-08  0.5000000E-15
  1.000000000000000E-004
  CAR 
 SQS with 1 vacancy for VFE and VRV      
     12.03506758    -50.28222934  301      6.73004187      1.00000000
    -50.282  0.0000E+00  0.0000E+00
    -50.075  0.0000E+00  0.0000E+00
    -49.867  0.0000E+00  0.0000E+00
    -49.659  0.0000E+00  0.0000E+00
    -49.451  0.0000E+00  0.0000E+00
    -49.244 -0.5477E-35 -0.1138E-35
    -49.036 -0.2044E-27 -0.4245E-28
    -48.828 -0.8670E-21 -0.1801E-21
    -48.620 -0.4063E-15 -0.8440E-16
    -48.413 -0.2168E-10 -0.4504E-11
    -48.205 -0.1287E-06 -0.2673E-07
    -47.997 -0.8228E-04 -0.1712E-04
    -47.790 -0.5036E-02 -0.1063E-02
    -47.582  0.2682E-02 -0.5061E-03
    -47.374  0.2823E+00  0.5814E-01
    -47.166  0.4239E+00  0.1462E+00
    -46.959  0.4161E+00  0.2326E+00
    -46.751  0.4678E-01  0.2423E+00
    -46.543 -0.1100E-01  0.2401E+00
    -46.335 -0.2810E-03  0.2400E+00
    -46.128 -0.6006E-06  0.2400E+00
    -45.920 -0.1342E-09  0.2400E+00
    -45.712 -0.3342E-14  0.2400E+00
    -45.505  0.0000E+00  0.2400E+00
    -45.297  0.0000E+00  0.2400E+00
    -45.089  0.0000E+00  0.2400E+00
    -44.881  0.0000E+00  0.2400E+00
    -44.674  0.0000E+00  0.2400E+00
    -44.466  0.0000E+00  0.2400E+00
    -44.258  0.0000E+00  0.2400E+00
    -44.050  0.0000E+00  0.2400E+00
    -43.843  0.0000E+00  0.2400E+00
    -43.635  0.0000E+00  0.2400E+00
    -43.427  0.0000E+00  0.2400E+00
    -43.220  0.0000E+00  0.2400E+00
    -43.012  0.0000E+00  0.2400E+00
    -42.804  0.0000E+00  0.2400E+00
    -42.596  0.0000E+00  0.2400E+00
    -42.389  0.0000E+00  0.2400E+00
    -42.181  0.0000E+00  0.2400E+00
    -41.973  0.0000E+00  0.2400E+00
    -41.766  0.0000E+00  0.2400E+00
    -41.558  0.0000E+00  0.2400E+00
    -41.350  0.0000E+00  0.2400E+00
    -41.142  0.0000E+00  0.2400E+00
    -40.935  0.0000E+00  0.2400E+00
    -40.727  0.0000E+00  0.2400E+00
    -40.519  0.0000E+00  0.2400E+00
    -40.311  0.0000E+00  0.2400E+00
    -40.104  0.0000E+00  0.2400E+00
    -39.896  0.0000E+00  0.2400E+00
    -39.688  0.0000E+00  0.2400E+00
    -39.481  0.0000E+00  0.2400E+00
    -39.273  0.0000E+00  0.2400E+00
    -39.065  0.0000E+00  0.2400E+00
    -38.857  0.0000E+00  0.2400E+00
    -38.650  0.0000E+00  0.2400E+00
    -38.442  0.0000E+00  0.2400E+00
    -38.234  0.0000E+00  0.2400E+00
    -38.026  0.0000E+00  0.2400E+00
    -37.819  0.0000E+00  0.2400E+00
    -37.611  0.0000E+00  0.2400E+00
    -37.403  0.0000E+00  0.2400E+00
    -37.196  0.0000E+00  0.2400E+00
    -36.988  0.0000E+00  0.2400E+00
    -36.780  0.0000E+00  0.2400E+00
    -36.572  0.0000E+00  0.2400E+00
    -36.365  0.0000E+00  0.2400E+00
    -36.157  0.0000E+00  0.2400E+00
    -35.949  0.0000E+00  0.2400E+00
    -35.742  0.0000E+00  0.2400E+00
    -35.534  0.0000E+00  0.2400E+00
    -35.326  0.0000E+00  0.2400E+00
    -35.118  0.0000E+00  0.2400E+00
    -34.911  0.0000E+00  0.2400E+00
    -34.703  0.0000E+00  0.2400E+00
    -34.495  0.0000E+00  0.2400E+00
    -34.287  0.0000E+00  0.2400E+00
    -34.080  0.0000E+00  0.2400E+00
    -33.872  0.0000E+00  0.2400E+00
    -33.664  0.0000E+00  0.2400E+00
    -33.457  0.0000E+00  0.2400E+00
    -33.249  0.0000E+00  0.2400E+00
    -33.041  0.0000E+00  0.2400E+00
    -32.833  0.0000E+00  0.2400E+00
    -32.626  0.0000E+00  0.2400E+00
    -32.418  0.0000E+00  0.2400E+00
    -32.210  0.0000E+00  0.2400E+00
    -32.002  0.0000E+00  0.2400E+00
    -31.795  0.0000E+00  0.2400E+00
    -31.587  0.0000E+00  0.2400E+00
    -31.379  0.0000E+00  0.2400E+00
    -31.172  0.0000E+00  0.2400E+00
    -30.964  0.0000E+00  0.2400E+00
    -30.756  0.0000E+00  0.2400E+00
    -30.548  0.0000E+00  0.2400E+00
    -30.341  0.0000E+00  0.2400E+00
    -30.133  0.0000E+00  0.2400E+00
    -29.925  0.0000E+00  0.2400E+00
    -29.718  0.0000E+00  0.2400E+00
    -29.510  0.0000E+00  0.2400E+00
    -29.302  0.0000E+00  0.2400E+00
    -29.094  0.0000E+00  0.2400E+00
    -28.887  0.0000E+00  0.2400E+00
    -28.679  0.0000E+00  0.2400E+00
    -28.471  0.0000E+00  0.2400E+00
    -28.263  0.0000E+00  0.2400E+00
    -28.056  0.0000E+00  0.2400E+00
    -27.848  0.0000E+00  0.2400E+00
    -27.640  0.0000E+00  0.2400E+00
    -27.433  0.0000E+00  0.2400E+00
    -27.225  0.0000E+00  0.2400E+00
    -27.017  0.0000E+00  0.2400E+00
    -26.809  0.0000E+00  0.2400E+00
    -26.602  0.0000E+00  0.2400E+00
    -26.394  0.0000E+00  0.2400E+00
    -26.186  0.0000E+00  0.2400E+00
    -25.978  0.0000E+00  0.2400E+00
    -25.771 -0.3155E-34  0.2400E+00
    -25.563 -0.7925E-27  0.2400E+00
    -25.355 -0.2266E-20  0.2400E+00
    -25.148 -0.7179E-15  0.2400E+00
    -24.940 -0.2647E-10  0.2400E+00
    -24.732 -0.1133E-06  0.2400E+00
    -24.524 -0.5740E-04  0.2400E+00
    -24.317 -0.3221E-02  0.2393E+00
    -24.109 -0.7922E-03  0.2392E+00
    -23.901  0.1701E+00  0.2745E+00
    -23.694  0.4520E+00  0.3684E+00
    -23.486  0.8095E+00  0.5365E+00
    -23.278  0.8145E+00  0.7057E+00
    -23.070  0.7703E+00  0.8658E+00
    -22.863  0.3797E+00  0.9446E+00
    -22.655  0.7473E-01  0.9602E+00
    -22.447  0.1036E-02  0.9604E+00
    -22.239 -0.1803E-02  0.9600E+00
    -22.032 -0.5685E-04  0.9600E+00
    -21.824 -0.1669E-06  0.9600E+00
    -21.616 -0.5153E-10  0.9600E+00
    -21.409 -0.1736E-14  0.9600E+00
    -21.201  0.0000E+00  0.9600E+00
    -20.993  0.0000E+00  0.9600E+00
    -20.785  0.0000E+00  0.9600E+00
    -20.578  0.0000E+00  0.9600E+00
    -20.370  0.0000E+00  0.9600E+00
    -20.162  0.0000E+00  0.9600E+00
    -19.954  0.0000E+00  0.9600E+00
    -19.747  0.0000E+00  0.9600E+00
    -19.539  0.0000E+00  0.9600E+00
    -19.331  0.0000E+00  0.9600E+00
    -19.124  0.0000E+00  0.9600E+00
    -18.916  0.0000E+00  0.9600E+00
    -18.708  0.0000E+00  0.9600E+00
    -18.500  0.0000E+00  0.9600E+00
    -18.293  0.0000E+00  0.9600E+00
    -18.085  0.0000E+00  0.9600E+00
    -17.877  0.0000E+00  0.9600E+00
    -17.670  0.0000E+00  0.9600E+00
    -17.462  0.0000E+00  0.9600E+00
    -17.254  0.0000E+00  0.9600E+00
    -17.046  0.0000E+00  0.9600E+00
    -16.839  0.0000E+00  0.9600E+00
    -16.631  0.0000E+00  0.9600E+00
    -16.423  0.0000E+00  0.9600E+00
    -16.215  0.0000E+00  0.9600E+00
    -16.008  0.0000E+00  0.9600E+00
    -15.800  0.0000E+00  0.9600E+00
    -15.592  0.0000E+00  0.9600E+00
    -15.385  0.0000E+00  0.9600E+00
    -15.177  0.0000E+00  0.9600E+00
    -14.969  0.0000E+00  0.9600E+00
    -14.761  0.0000E+00  0.9600E+00
    -14.554  0.0000E+00  0.9600E+00
    -14.346  0.0000E+00  0.9600E+00
    -14.138  0.0000E+00  0.9600E+00
    -13.930  0.0000E+00  0.9600E+00
    -13.723  0.0000E+00  0.9600E+00
    -13.515  0.0000E+00  0.9600E+00
    -13.307  0.0000E+00  0.9600E+00
    -13.100  0.0000E+00  0.9600E+00
    -12.892  0.0000E+00  0.9600E+00
    -12.684  0.0000E+00  0.9600E+00
    -12.476  0.0000E+00  0.9600E+00
    -12.269  0.0000E+00  0.9600E+00
    -12.061  0.0000E+00  0.9600E+00
    -11.853  0.0000E+00  0.9600E+00
    -11.646  0.0000E+00  0.9600E+00
    -11.438  0.0000E+00  0.9600E+00
    -11.230  0.0000E+00  0.9600E+00
    -11.022  0.0000E+00  0.9600E+00
    -10.815  0.0000E+00  0.9600E+00
    -10.607  0.0000E+00  0.9600E+00
    -10.399  0.0000E+00  0.9600E+00
    -10.191  0.0000E+00  0.9600E+00
     -9.984  0.0000E+00  0.9600E+00
     -9.776  0.0000E+00  0.9600E+00
     -9.568  0.0000E+00  0.9600E+00
     -9.361  0.0000E+00  0.9600E+00
     -9.153  0.0000E+00  0.9600E+00
     -8.945  0.0000E+00  0.9600E+00
     -8.737  0.0000E+00  0.9600E+00
     -8.530  0.0000E+00  0.9600E+00
     -8.322  0.0000E+00  0.9600E+00
     -8.114  0.0000E+00  0.9600E+00
     -7.906  0.0000E+00  0.9600E+00
     -7.699  0.0000E+00  0.9600E+00
     -7.491  0.0000E+00  0.9600E+00
     -7.283  0.0000E+00  0.9600E+00
     -7.076  0.0000E+00  0.9600E+00
     -6.868  0.0000E+00  0.9600E+00
     -6.660  0.0000E+00  0.9600E+00
     -6.452  0.0000E+00  0.9600E+00
     -6.245  0.0000E+00  0.9600E+00
     -6.037  0.0000E+00  0.9600E+00
     -5.829  0.0000E+00  0.9600E+00
     -5.621  0.0000E+00  0.9600E+00
     -5.414  0.0000E+00  0.9600E+00
     -5.206  0.0000E+00  0.9600E+00
     -4.998  0.0000E+00  0.9600E+00
     -4.791  0.0000E+00  0.9600E+00
     -4.583  0.0000E+00  0.9600E+00
     -4.375  0.0000E+00  0.9600E+00
     -4.167  0.0000E+00  0.9600E+00
     -3.960  0.0000E+00  0.9600E+00
     -3.752  0.0000E+00  0.9600E+00
     -3.544  0.0000E+00  0.9600E+00
     -3.337  0.0000E+00  0.9600E+00
     -3.129  0.0000E+00  0.9600E+00
     -2.921  0.0000E+00  0.9600E+00
     -2.713  0.0000E+00  0.9600E+00
     -2.506  0.0000E+00  0.9600E+00
     -2.298 -0.2866E-34  0.9600E+00
     -2.090 -0.4960E-27  0.9600E+00
     -1.882 -0.9819E-21  0.9600E+00
     -1.675 -0.2151E-15  0.9600E+00
     -1.467 -0.5495E-11  0.9600E+00
     -1.259 -0.1590E-07  0.9600E+00
     -1.052 -0.5125E-05  0.9600E+00
     -0.844 -0.1647E-03  0.9600E+00
     -0.636  0.2666E-03  0.9600E+00
     -0.428  0.7687E-02  0.9616E+00
     -0.221  0.2169E-01  0.9661E+00
     -0.013  0.3526E-01  0.9734E+00
      0.195  0.3438E-01  0.9806E+00
      0.403  0.2695E-01  0.9862E+00
      0.610  0.4711E-01  0.9960E+00
      0.818  0.6431E-01  0.1009E+01
      1.026  0.6554E-01  0.1023E+01
      1.233  0.5513E-01  0.1034E+01
      1.441  0.8475E-01  0.1052E+01
      1.649  0.8682E-01  0.1070E+01
      1.857  0.8834E-01  0.1088E+01
      2.064  0.1346E+00  0.1116E+01
      2.272  0.1981E+00  0.1157E+01
      2.480  0.3010E+00  0.1220E+01
      2.687  0.3695E+00  0.1297E+01
      2.895  0.4420E+00  0.1389E+01
      3.103  0.5210E+00  0.1497E+01
      3.311  0.5673E+00  0.1615E+01
      3.518  0.5924E+00  0.1738E+01
      3.726  0.5849E+00  0.1859E+01
      3.934  0.5856E+00  0.1981E+01
      4.142  0.5785E+00  0.2101E+01
      4.349  0.5150E+00  0.2208E+01
      4.557  0.5538E+00  0.2323E+01
      4.765  0.7056E+00  0.2470E+01
      4.972  0.7817E+00  0.2632E+01
      5.180  0.7803E+00  0.2794E+01
      5.388  0.7572E+00  0.2951E+01
      5.596  0.7254E+00  0.3102E+01
      5.803  0.7306E+00  0.3254E+01
      6.011  0.7799E+00  0.3416E+01
      6.219  0.7991E+00  0.3582E+01
      6.427  0.7873E+00  0.3745E+01
      6.634  0.7283E+00  0.3897E+01
      6.842  0.6314E+00  0.4028E+01
      7.050  0.5199E+00  0.4136E+01
      7.257  0.3985E+00  0.4219E+01
      7.465  0.3136E+00  0.4284E+01
      7.673  0.2944E+00  0.4345E+01
      7.881  0.3292E+00  0.4413E+01
      8.088  0.3921E+00  0.4495E+01
      8.296  0.4300E+00  0.4584E+01
      8.504  0.4333E+00  0.4674E+01
      8.711  0.3372E+00  0.4744E+01
      8.919  0.1861E+00  0.4783E+01
      9.127  0.7340E-01  0.4798E+01
      9.335  0.1115E-01  0.4800E+01
      9.542 -0.1362E-02  0.4800E+01
      9.750 -0.1892E-03  0.4800E+01
      9.958 -0.2177E-05  0.4800E+01
     10.166 -0.2837E-08  0.4800E+01
     10.373 -0.4274E-12  0.4800E+01
     10.581 -0.8209E-17  0.4800E+01
     10.789  0.0000E+00  0.4800E+01
     10.996  0.0000E+00  0.4800E+01
     11.204  0.0000E+00  0.4800E+01
     11.412  0.0000E+00  0.4800E+01
     11.620  0.0000E+00  0.4800E+01
     11.827  0.0000E+00  0.4800E+01
     12.035  0.0000E+00  0.4800E+01
