   29   29   50    1
  0.1679057E+02  0.5525242E-09  0.8287863E-09  0.1139058E-08  0.5000000E-15
  1.000000000000000E-004
  CAR 
 SQS with 1 vacancy for VFE and VRV      
    198     63    120
 
  0.0000000E+00  0.0000000E+00  0.0000000E+00  0.8000000E-02
    1      -47.449625   1.000000
    2      -47.374717   1.000000
    3      -47.322451   1.000000
    4      -47.133797   1.000000
    5      -47.066257   1.000000
    6      -47.056150   1.000000
    7      -24.014897   1.000000
    8      -23.916352   1.000000
    9      -23.747454   1.000000
   10      -23.687485   1.000000
   11      -23.633008   1.000000
   12      -23.590397   1.000000
   13      -23.541195   1.000000
   14      -23.497112   1.000000
   15      -23.450354   1.000000
   16      -23.352137   1.000000
   17      -23.303585   1.000000
   18      -23.258955   1.000000
   19      -23.237365   1.000000
   20      -23.211808   1.000000
   21      -23.107881   1.000000
   22      -23.043198   1.000000
   23      -22.982034   1.000000
   24      -22.732568   1.000000
   25       -0.577916   1.000000
   26        0.792206   1.000000
   27        1.101320   1.000000
   28        2.009284   1.000000
   29        2.039762   1.000000
   30        2.169667   1.000000
   31        2.291382   1.000000
   32        2.383992   1.000000
   33        2.479172   1.000000
   34        2.519926   1.000000
   35        2.600830   1.000000
   36        2.715144   1.000000
   37        2.791330   1.000000
   38        2.873818   1.000000
   39        2.889468   1.000000
   40        3.026319   1.000000
   41        3.088072   1.000000
   42        3.179491   1.000000
   43        3.265406   1.000000
   44        3.392942   1.000000
   45        3.406053   1.000000
   46        3.494992   1.000000
   47        3.533556   1.000000
   48        3.595317   1.000000
   49        3.624317   1.000000
   50        3.689244   1.000000
   51        3.784902   1.000000
   52        3.859012   1.000000
   53        3.913812   1.000000
   54        4.040993   1.000000
   55        4.137464   1.000000
   56        4.179751   1.000000
   57        4.326703   1.000000
   58        4.351341   1.000000
   59        4.489001   1.000000
   60        4.556514   1.000000
   61        4.564504   1.000000
   62        4.658689   1.000000
   63        4.710127   1.000000
   64        4.722074   1.000000
   65        4.804737   1.000000
   66        4.832214   1.000000
   67        4.926759   1.000000
   68        4.947549   1.000000
   69        4.997249   1.000000
   70        5.025818   1.000000
   71        5.126085   1.000000
   72        5.176066   1.000000
   73        5.210458   1.000000
   74        5.312135   1.000000
   75        5.378780   1.000000
   76        5.400696   1.000000
   77        5.481401   1.000000
   78        5.509547   1.000000
   79        5.613989   1.000000
   80        5.698064   1.000000
   81        5.806594   1.000000
   82        5.897161   1.000000
   83        5.982830   1.000001
   84        6.029610   1.000004
   85        6.078634   1.000021
   86        6.172098   1.000288
   87        6.227596   1.001096
   88        6.252681   1.001892
   89        6.270574   1.002728
   90        6.339830   1.009334
   91        6.395867   1.019833
   92        6.485603   1.035457
   93        6.527537   1.026378
   94        6.582799   0.971884
   95        6.634727   0.856962
   96        6.734130   0.482706
   97        6.815615   0.172051
   98        6.953028  -0.033310
   99        7.057058  -0.021452
  100        7.086651  -0.015092
  101        7.170750  -0.003923
  102        7.222065  -0.001381
  103        7.307622  -0.000172
  104        7.520029  -0.000000
  105        7.636125  -0.000000
  106        7.677277  -0.000000
  107        7.797685  -0.000000
  108        7.919244  -0.000000
  109        8.179985  -0.000000
  110        8.426225  -0.000000
  111        8.434696  -0.000000
  112        8.556993  -0.000000
  113        8.633808  -0.000000
  114        8.676248  -0.000000
  115        8.736779  -0.000000
  116        8.832549  -0.000000
  117        8.974549  -0.000000
  118        9.001080  -0.000000
  119        9.048797  -0.000000
  120        9.103744  -0.000000
 
  0.2000000E+00 -0.1387779E-16  0.0000000E+00  0.1600000E-01
    1      -47.449517   1.000000
    2      -47.374252   1.000000
    3      -47.314557   1.000000
    4      -47.133415   1.000000
    5      -47.066261   1.000000
    6      -47.064429   1.000000
    7      -23.935123   1.000000
    8      -23.891921   1.000000
    9      -23.742259   1.000000
   10      -23.681854   1.000000
   11      -23.633127   1.000000
   12      -23.591457   1.000000
   13      -23.544527   1.000000
   14      -23.489850   1.000000
   15      -23.451720   1.000000
   16      -23.360989   1.000000
   17      -23.304048   1.000000
   18      -23.261709   1.000000
   19      -23.245376   1.000000
   20      -23.216946   1.000000
   21      -23.111304   1.000000
   22      -23.047906   1.000000
   23      -22.985109   1.000000
   24      -22.852931   1.000000
   25       -0.257331   1.000000
   26        1.061543   1.000000
   27        1.371248   1.000000
   28        2.101814   1.000000
   29        2.246734   1.000000
   30        2.359197   1.000000
   31        2.460369   1.000000
   32        2.553623   1.000000
   33        2.632768   1.000000
   34        2.725696   1.000000
   35        2.760085   1.000000
   36        2.919506   1.000000
   37        2.992022   1.000000
   38        3.033824   1.000000
   39        3.073757   1.000000
   40        3.170833   1.000000
   41        3.253761   1.000000
   42        3.282209   1.000000
   43        3.342016   1.000000
   44        3.423769   1.000000
   45        3.508493   1.000000
   46        3.578235   1.000000
   47        3.664126   1.000000
   48        3.726096   1.000000
   49        3.805314   1.000000
   50        3.855917   1.000000
   51        3.914615   1.000000
   52        3.947003   1.000000
   53        4.016415   1.000000
   54        4.106935   1.000000
   55        4.233165   1.000000
   56        4.282776   1.000000
   57        4.370876   1.000000
   58        4.411816   1.000000
   59        4.517070   1.000000
   60        4.585572   1.000000
   61        4.633374   1.000000
   62        4.715813   1.000000
   63        4.794948   1.000000
   64        4.821453   1.000000
   65        4.915194   1.000000
   66        4.941057   1.000000
   67        4.964574   1.000000
   68        5.060630   1.000000
   69        5.076311   1.000000
   70        5.158610   1.000000
   71        5.185793   1.000000
   72        5.246336   1.000000
   73        5.312681   1.000000
   74        5.368058   1.000000
   75        5.397994   1.000000
   76        5.421139   1.000000
   77        5.512354   1.000000
   78        5.549901   1.000000
   79        5.584945   1.000000
   80        5.709033   1.000000
   81        5.767128   1.000000
   82        5.860969   1.000000
   83        5.914379   1.000000
   84        5.964047   1.000000
   85        6.017892   1.000003
   86        6.069956   1.000016
   87        6.133405   1.000103
   88        6.168667   1.000264
   89        6.238573   1.001398
   90        6.276971   1.003096
   91        6.319849   1.006757
   92        6.369655   1.014357
   93        6.412703   1.023682
   94        6.454320   1.032525
   95        6.525623   1.027271
   96        6.617868   0.901682
   97        6.701726   0.618495
   98        6.768637   0.340013
   99        6.799709   0.224105
  100        6.889509   0.010637
  101        6.923064  -0.021117
  102        6.988136  -0.034850
  103        7.071366  -0.018260
  104        7.081111  -0.016205
  105        7.259822  -0.000580
  106        7.474612  -0.000001
  107        7.545748  -0.000000
  108        7.636666  -0.000000
  109        7.858233  -0.000000
  110        7.911326  -0.000000
  111        7.987521  -0.000000
  112        8.008670  -0.000000
  113        8.153877  -0.000000
  114        8.269877  -0.000000
  115        8.340999  -0.000000
  116        8.384183  -0.000000
  117        8.502251  -0.000000
  118        8.550853  -0.000000
  119        8.662404  -0.000000
  120        8.729970  -0.000000
 
  0.4000000E+00 -0.2775558E-16  0.0000000E+00  0.1600000E-01
    1      -47.449346   1.000000
    2      -47.373497   1.000000
    3      -47.300512   1.000000
    4      -47.132889   1.000000
    5      -47.079135   1.000000
    6      -47.066137   1.000000
    7      -23.920191   1.000000
    8      -23.754260   1.000000
    9      -23.702579   1.000000
   10      -23.633388   1.000000
   11      -23.597991   1.000000
   12      -23.579060   1.000000
   13      -23.549638   1.000000
   14      -23.477612   1.000000
   15      -23.452404   1.000000
   16      -23.375416   1.000000
   17      -23.305047   1.000000
   18      -23.266343   1.000000
   19      -23.260165   1.000000
   20      -23.235212   1.000000
   21      -23.177667   1.000000
   22      -23.094582   1.000000
   23      -23.049071   1.000000
   24      -22.982652   1.000000
   25        0.584432   1.000000
   26        1.478168   1.000000
   27        1.991766   1.000000
   28        2.155899   1.000000
   29        2.360539   1.000000
   30        2.543981   1.000000
   31        2.737783   1.000000
   32        2.799896   1.000000
   33        2.931411   1.000000
   34        3.072588   1.000000
   35        3.108479   1.000000
   36        3.176430   1.000000
   37        3.232028   1.000000
   38        3.321428   1.000000
   39        3.386763   1.000000
   40        3.435833   1.000000
   41        3.486304   1.000000
   42        3.517319   1.000000
   43        3.576865   1.000000
   44        3.642359   1.000000
   45        3.769876   1.000000
   46        3.830866   1.000000
   47        3.863853   1.000000
   48        3.899747   1.000000
   49        3.982205   1.000000
   50        4.084196   1.000000
   51        4.179589   1.000000
   52        4.244759   1.000000
   53        4.341224   1.000000
   54        4.349990   1.000000
   55        4.442301   1.000000
   56        4.488214   1.000000
   57        4.541192   1.000000
   58        4.558564   1.000000
   59        4.621485   1.000000
   60        4.649815   1.000000
   61        4.715200   1.000000
   62        4.769162   1.000000
   63        4.807285   1.000000
   64        4.847804   1.000000
   65        4.916269   1.000000
   66        4.990403   1.000000
   67        5.030784   1.000000
   68        5.079109   1.000000
   69        5.142452   1.000000
   70        5.215556   1.000000
   71        5.249874   1.000000
   72        5.282221   1.000000
   73        5.357010   1.000000
   74        5.382541   1.000000
   75        5.466484   1.000000
   76        5.498401   1.000000
   77        5.522442   1.000000
   78        5.581835   1.000000
   79        5.639469   1.000000
   80        5.711928   1.000000
   81        5.774851   1.000000
   82        5.850107   1.000000
   83        5.873260   1.000000
   84        5.929622   1.000000
   85        5.952364   1.000000
   86        6.004922   1.000002
   87        6.028696   1.000004
   88        6.070642   1.000016
   89        6.150707   1.000164
   90        6.163099   1.000228
   91        6.227184   1.001086
   92        6.245228   1.001615
   93        6.346243   1.010294
   94        6.366771   1.013811
   95        6.430920   1.027847
   96        6.481189   1.035401
   97        6.504091   1.033881
   98        6.544454   1.015942
   99        6.590154   0.959677
  100        6.649074   0.813458
  101        6.689056   0.669455
  102        6.738347   0.464893
  103        6.809694   0.190771
  104        6.902979  -0.004796
  105        6.967469  -0.035229
  106        6.988688  -0.034800
  107        7.071964  -0.018131
  108        7.127389  -0.008343
  109        7.264560  -0.000518
  110        7.358279  -0.000042
  111        7.541966  -0.000000
  112        7.606443  -0.000000
  113        7.696966  -0.000000
  114        7.800841  -0.000000
  115        7.875912  -0.000000
  116        7.937380  -0.000000
  117        8.009441  -0.000000
  118        8.204910  -0.000000
  119        8.287494  -0.000000
  120        8.384583  -0.000000
 
  0.0000000E+00  0.2000000E+00  0.1387779E-16  0.1600000E-01
    1      -47.449596   1.000000
    2      -47.374616   1.000000
    3      -47.322444   1.000000
    4      -47.133790   1.000000
    5      -47.066391   1.000000
    6      -47.056146   1.000000
    7      -24.014887   1.000000
    8      -23.914643   1.000000
    9      -23.744357   1.000000
   10      -23.687090   1.000000
   11      -23.632577   1.000000
   12      -23.590409   1.000000
   13      -23.541262   1.000000
   14      -23.497300   1.000000
   15      -23.450345   1.000000
   16      -23.352216   1.000000
   17      -23.303668   1.000000
   18      -23.258857   1.000000
   19      -23.237435   1.000000
   20      -23.211895   1.000000
   21      -23.107981   1.000000
   22      -23.047514   1.000000
   23      -22.984417   1.000000
   24      -22.732576   1.000000
   25       -0.441565   1.000000
   26        0.885622   1.000000
   27        1.162192   1.000000
   28        1.604978   1.000000
   29        1.995909   1.000000
   30        2.220010   1.000000
   31        2.301963   1.000000
   32        2.439687   1.000000
   33        2.510805   1.000000
   34        2.529572   1.000000
   35        2.625098   1.000000
   36        2.744718   1.000000
   37        2.779927   1.000000
   38        2.832954   1.000000
   39        2.872228   1.000000
   40        2.972789   1.000000
   41        3.011231   1.000000
   42        3.110032   1.000000
   43        3.234066   1.000000
   44        3.348866   1.000000
   45        3.459376   1.000000
   46        3.540034   1.000000
   47        3.588820   1.000000
   48        3.658047   1.000000
   49        3.704534   1.000000
   50        3.744832   1.000000
   51        3.794070   1.000000
   52        3.889659   1.000000
   53        3.984876   1.000000
   54        4.069274   1.000000
   55        4.099200   1.000000
   56        4.249271   1.000000
   57        4.300962   1.000000
   58        4.398808   1.000000
   59        4.472158   1.000000
   60        4.544751   1.000000
   61        4.623444   1.000000
   62        4.690335   1.000000
   63        4.742845   1.000000
   64        4.818368   1.000000
   65        4.884399   1.000000
   66        4.918208   1.000000
   67        4.957735   1.000000
   68        4.991378   1.000000
   69        5.024185   1.000000
   70        5.094382   1.000000
   71        5.126825   1.000000
   72        5.224586   1.000000
   73        5.284654   1.000000
   74        5.323525   1.000000
   75        5.383623   1.000000
   76        5.426816   1.000000
   77        5.517129   1.000000
   78        5.622660   1.000000
   79        5.691951   1.000000
   80        5.755952   1.000000
   81        5.819066   1.000000
   82        5.866352   1.000000
   83        5.941152   1.000000
   84        5.997316   1.000001
   85        6.046417   1.000007
   86        6.081275   1.000022
   87        6.123037   1.000077
   88        6.214935   1.000821
   89        6.239688   1.001432
   90        6.251760   1.001855
   91        6.300737   1.004841
   92        6.395870   1.019834
   93        6.434942   1.028729
   94        6.500056   1.034505
   95        6.588648   0.962282
   96        6.649750   0.811289
   97        6.744885   0.437386
   98        6.824981   0.144114
   99        6.959162  -0.034385
  100        7.064364  -0.019801
  101        7.181682  -0.003183
  102        7.278228  -0.000369
  103        7.306872  -0.000176
  104        7.510546  -0.000000
  105        7.662325  -0.000000
  106        7.741090  -0.000000
  107        7.805988  -0.000000
  108        7.946496  -0.000000
  109        8.066508  -0.000000
  110        8.143093  -0.000000
  111        8.177184  -0.000000
  112        8.244288  -0.000000
  113        8.373561  -0.000000
  114        8.553273  -0.000000
  115        8.590179  -0.000000
  116        8.710368  -0.000000
  117        8.768672  -0.000000
  118        8.833461  -0.000000
  119        8.899851  -0.000000
  120        8.973597  -0.000000
 
  0.2000000E+00  0.2000000E+00 -0.4857226E-16  0.1600000E-01
    1      -47.449544   1.000000
    2      -47.374350   1.000000
    3      -47.314562   1.000000
    4      -47.133423   1.000000
    5      -47.066135   1.000000
    6      -47.064429   1.000000
    7      -23.935973   1.000000
    8      -23.892795   1.000000
    9      -23.745388   1.000000
   10      -23.682102   1.000000
   11      -23.633527   1.000000
   12      -23.591468   1.000000
   13      -23.544527   1.000000
   14      -23.489713   1.000000
   15      -23.451741   1.000000
   16      -23.360897   1.000000
   17      -23.303976   1.000000
   18      -23.261677   1.000000
   19      -23.245302   1.000000
   20      -23.216867   1.000000
   21      -23.111178   1.000000
   22      -23.043686   1.000000
   23      -22.982813   1.000000
   24      -22.852913   1.000000
   25       -0.258326   1.000000
   26        1.018612   1.000000
   27        1.374194   1.000000
   28        2.039181   1.000000
   29        2.191568   1.000000
   30        2.315017   1.000000
   31        2.429915   1.000000
   32        2.510699   1.000000
   33        2.630040   1.000000
   34        2.686948   1.000000
   35        2.797021   1.000000
   36        2.820173   1.000000
   37        2.935613   1.000000
   38        3.029251   1.000000
   39        3.054742   1.000000
   40        3.134283   1.000000
   41        3.177007   1.000000
   42        3.268540   1.000000
   43        3.391232   1.000000
   44        3.447265   1.000000
   45        3.535497   1.000000
   46        3.643986   1.000000
   47        3.682143   1.000000
   48        3.746783   1.000000
   49        3.795023   1.000000
   50        3.864983   1.000000
   51        3.913071   1.000000
   52        3.963805   1.000000
   53        4.055557   1.000000
   54        4.120801   1.000000
   55        4.224005   1.000000
   56        4.285730   1.000000
   57        4.425042   1.000000
   58        4.492401   1.000000
   59        4.523810   1.000000
   60        4.587773   1.000000
   61        4.633834   1.000000
   62        4.686691   1.000000
   63        4.754039   1.000000
   64        4.831414   1.000000
   65        4.883324   1.000000
   66        4.930340   1.000000
   67        4.974549   1.000000
   68        4.995892   1.000000
   69        5.026068   1.000000
   70        5.070533   1.000000
   71        5.124783   1.000000
   72        5.206504   1.000000
   73        5.254113   1.000000
   74        5.294598   1.000000
   75        5.376513   1.000000
   76        5.454321   1.000000
   77        5.483215   1.000000
   78        5.544201   1.000000
   79        5.605554   1.000000
   80        5.650411   1.000000
   81        5.758564   1.000000
   82        5.827715   1.000000
   83        5.855218   1.000000
   84        5.899144   1.000000
   85        5.986470   1.000001
   86        6.014416   1.000003
   87        6.104830   1.000045
   88        6.189679   1.000449
   89        6.198036   1.000550
   90        6.299024   1.004693
   91        6.334407   1.008573
   92        6.413623   1.023895
   93        6.469349   1.034602
   94        6.542668   1.017274
   95        6.600420   0.940436
   96        6.661832   0.770854
   97        6.758862   0.379444
   98        6.809551   0.191233
   99        6.830518   0.128598
  100        6.981999  -0.035277
  101        7.046731  -0.023832
  102        7.108216  -0.011191
  103        7.131867  -0.007761
  104        7.226434  -0.001255
  105        7.281637  -0.000339
  106        7.307053  -0.000175
  107        7.450904  -0.000002
  108        7.513270  -0.000000
  109        7.841263  -0.000000
  110        7.906674  -0.000000
  111        8.016668  -0.000000
  112        8.236076  -0.000000
  113        8.415587  -0.000000
  114        8.529766  -0.000000
  115        8.544482  -0.000000
  116        8.633229  -0.000000
  117        8.808301  -0.000000
  118        8.852319  -0.000000
  119        8.937076  -0.000000
  120        8.972682  -0.000000
 
  0.4000000E+00  0.2000000E+00 -0.5551115E-16  0.1600000E-01
    1      -47.449390   1.000000
    2      -47.373658   1.000000
    3      -47.300521   1.000000
    4      -47.132902   1.000000
    5      -47.079140   1.000000
    6      -47.065925   1.000000
    7      -23.922658   1.000000
    8      -23.758413   1.000000
    9      -23.704335   1.000000
   10      -23.634197   1.000000
   11      -23.598017   1.000000
   12      -23.578984   1.000000
   13      -23.549624   1.000000
   14      -23.477394   1.000000
   15      -23.452416   1.000000
   16      -23.375255   1.000000
   17      -23.304924   1.000000
   18      -23.266328   1.000000
   19      -23.260047   1.000000
   20      -23.235132   1.000000
   21      -23.177610   1.000000
   22      -23.093672   1.000000
   23      -23.041462   1.000000
   24      -22.980168   1.000000
   25        0.478482   1.000000
   26        1.429849   1.000000
   27        1.857760   1.000000
   28        2.047537   1.000000
   29        2.262875   1.000000
   30        2.416910   1.000000
   31        2.762918   1.000000
   32        2.931406   1.000000
   33        3.019317   1.000000
   34        3.076453   1.000000
   35        3.178085   1.000000
   36        3.202289   1.000000
   37        3.256178   1.000000
   38        3.339769   1.000000
   39        3.412908   1.000000
   40        3.456472   1.000000
   41        3.488251   1.000000
   42        3.534277   1.000000
   43        3.558693   1.000000
   44        3.648702   1.000000
   45        3.698318   1.000000
   46        3.757411   1.000000
   47        3.861978   1.000000
   48        3.901738   1.000000
   49        4.025911   1.000000
   50        4.076049   1.000000
   51        4.135905   1.000000
   52        4.157721   1.000000
   53        4.189430   1.000000
   54        4.287581   1.000000
   55        4.319629   1.000000
   56        4.427895   1.000000
   57        4.509747   1.000000
   58        4.544056   1.000000
   59        4.616443   1.000000
   60        4.639921   1.000000
   61        4.724940   1.000000
   62        4.760096   1.000000
   63        4.846165   1.000000
   64        4.888926   1.000000
   65        4.920117   1.000000
   66        4.958861   1.000000
   67        5.044783   1.000000
   68        5.103154   1.000000
   69        5.133590   1.000000
   70        5.188644   1.000000
   71        5.232648   1.000000
   72        5.260301   1.000000
   73        5.298618   1.000000
   74        5.410715   1.000000
   75        5.470122   1.000000
   76        5.487235   1.000000
   77        5.519062   1.000000
   78        5.592045   1.000000
   79        5.684371   1.000000
   80        5.732024   1.000000
   81        5.765209   1.000000
   82        5.792828   1.000000
   83        5.853273   1.000000
   84        5.887147   1.000000
   85        5.980134   1.000001
   86        6.012077   1.000002
   87        6.045947   1.000007
   88        6.065797   1.000014
   89        6.092818   1.000032
   90        6.164357   1.000236
   91        6.188887   1.000440
   92        6.239119   1.001415
   93        6.289603   1.003943
   94        6.322677   1.007085
   95        6.339276   1.009254
   96        6.385609   1.017592
   97        6.442731   1.030362
   98        6.483211   1.035444
   99        6.568565   0.991913
  100        6.622200   0.890869
  101        6.660464   0.775589
  102        6.749738   0.417106
  103        6.840515   0.102507
  104        6.930744  -0.025488
  105        6.989227  -0.034750
  106        7.033829  -0.026800
  107        7.175272  -0.003602
  108        7.298059  -0.000222
  109        7.508018  -0.000000
  110        7.648677  -0.000000
  111        7.685086  -0.000000
  112        7.882128  -0.000000
  113        8.007414  -0.000000
  114        8.083264  -0.000000
  115        8.176664  -0.000000
  116        8.271048  -0.000000
  117        8.353509  -0.000000
  118        8.389305  -0.000000
  119        8.463251  -0.000000
  120        8.551850  -0.000000
 
 -0.4000000E+00  0.2000000E+00 -0.3908332E-16  0.1600000E-01
    1      -47.449345   1.000000
    2      -47.373496   1.000000
    3      -47.300511   1.000000
    4      -47.132890   1.000000
    5      -47.079135   1.000000
    6      -47.066139   1.000000
    7      -23.920167   1.000000
    8      -23.754261   1.000000
    9      -23.702565   1.000000
   10      -23.633370   1.000000
   11      -23.598006   1.000000
   12      -23.579073   1.000000
   13      -23.549661   1.000000
   14      -23.477641   1.000000
   15      -23.452408   1.000000
   16      -23.375414   1.000000
   17      -23.305049   1.000000
   18      -23.266276   1.000000
   19      -23.260168   1.000000
   20      -23.235209   1.000000
   21      -23.177657   1.000000
   22      -23.094568   1.000000
   23      -23.049143   1.000000
   24      -22.982688   1.000000
   25        0.829252   1.000000
   26        1.467036   1.000000
   27        1.738294   1.000000
   28        2.124860   1.000000
   29        2.268280   1.000000
   30        2.475282   1.000000
   31        2.679771   1.000000
   32        2.774172   1.000000
   33        2.975485   1.000000
   34        3.038543   1.000000
   35        3.099570   1.000000
   36        3.179879   1.000000
   37        3.218134   1.000000
   38        3.337888   1.000000
   39        3.373129   1.000000
   40        3.432421   1.000000
   41        3.484454   1.000000
   42        3.553068   1.000000
   43        3.621007   1.000000
   44        3.674993   1.000000
   45        3.744922   1.000000
   46        3.779640   1.000000
   47        3.873981   1.000000
   48        3.958994   1.000000
   49        4.043689   1.000000
   50        4.134641   1.000000
   51        4.175805   1.000000
   52        4.233996   1.000000
   53        4.319981   1.000000
   54        4.389146   1.000000
   55        4.455784   1.000000
   56        4.505445   1.000000
   57        4.538525   1.000000
   58        4.599008   1.000000
   59        4.625403   1.000000
   60        4.689155   1.000000
   61        4.741577   1.000000
   62        4.795600   1.000000
   63        4.857591   1.000000
   64        4.886137   1.000000
   65        4.928646   1.000000
   66        4.990617   1.000000
   67        5.007520   1.000000
   68        5.075243   1.000000
   69        5.112006   1.000000
   70        5.164469   1.000000
   71        5.239153   1.000000
   72        5.277552   1.000000
   73        5.316110   1.000000
   74        5.343549   1.000000
   75        5.374417   1.000000
   76        5.468337   1.000000
   77        5.512790   1.000000
   78        5.597434   1.000000
   79        5.660691   1.000000
   80        5.696535   1.000000
   81        5.749231   1.000000
   82        5.793591   1.000000
   83        5.898702   1.000000
   84        5.918841   1.000000
   85        5.939037   1.000000
   86        5.975118   1.000001
   87        6.023264   1.000003
   88        6.085950   1.000026
   89        6.118392   1.000067
   90        6.175167   1.000312
   91        6.237981   1.001380
   92        6.288726   1.003879
   93        6.308882   1.005596
   94        6.371431   1.014700
   95        6.416622   1.024589
   96        6.471522   1.034812
   97        6.505565   1.033610
   98        6.565370   0.995785
   99        6.597187   0.946776
  100        6.670281   0.740787
  101        6.729246   0.503368
  102        6.770478   0.332717
  103        6.815676   0.171862
  104        6.882428   0.020344
  105        6.970446  -0.035376
  106        7.010340  -0.031718
  107        7.093581  -0.013761
  108        7.175059  -0.003616
  109        7.228734  -0.001192
  110        7.331801  -0.000089
  111        7.485704  -0.000001
  112        7.640231  -0.000000
  113        7.751340  -0.000000
  114        7.830845  -0.000000
  115        8.015233  -0.000000
  116        8.079890  -0.000000
  117        8.203576  -0.000000
  118        8.287757  -0.000000
  119        8.314942  -0.000000
  120        8.351752  -0.000000
 
 -0.2000000E+00  0.2000000E+00  0.1006140E-15  0.1600000E-01
    1      -47.449471   1.000000
    2      -47.374089   1.000000
    3      -47.314547   1.000000
    4      -47.133403   1.000000
    5      -47.066473   1.000000
    6      -47.064428   1.000000
    7      -23.933825   1.000000
    8      -23.890466   1.000000
    9      -23.737069   1.000000
   10      -23.681358   1.000000
   11      -23.632288   1.000000
   12      -23.591465   1.000000
   13      -23.544604   1.000000
   14      -23.490145   1.000000
   15      -23.451694   1.000000
   16      -23.361127   1.000000
   17      -23.304174   1.000000
   18      -23.261588   1.000000
   19      -23.245505   1.000000
   20      -23.217070   1.000000
   21      -23.111536   1.000000
   22      -23.055597   1.000000
   23      -22.988384   1.000000
   24      -22.852948   1.000000
   25       -0.009767   1.000000
   26        1.218866   1.000000
   27        1.368618   1.000000
   28        1.676137   1.000000
   29        2.163861   1.000000
   30        2.398529   1.000000
   31        2.591099   1.000000
   32        2.625732   1.000000
   33        2.700959   1.000000
   34        2.743959   1.000000
   35        2.784425   1.000000
   36        2.889008   1.000000
   37        2.962692   1.000000
   38        2.989662   1.000000
   39        3.069575   1.000000
   40        3.098624   1.000000
   41        3.211882   1.000000
   42        3.284963   1.000000
   43        3.332914   1.000000
   44        3.362634   1.000000
   45        3.480809   1.000000
   46        3.582554   1.000000
   47        3.658820   1.000000