<?xml version="1.0" encoding="ISO-8859-1"?>
<modeling>
 <generator>
  <i name="program" type="string">vasp </i>
  <i name="version" type="string">5.4.4.18Apr17-6-g9f103f2a35  </i>
  <i name="subversion" type="string">(build Aug 09 2018 16:20:53) complex            parallel </i>
  <i name="platform" type="string">LinuxIFC </i>
  <i name="date" type="string">2020 04 13 </i>
  <i name="time" type="string">19:51:14 </i>
 </generator>
 <incar>
  <i type="string" name="SYSTEM"> SQS with 1 vacancy for VFE and VRV</i>
  <i type="string" name="PREC">normal</i>
  <i type="int" name="IALGO">    38</i>
  <i type="int" name="ICHARG">     2</i>
  <i type="int" name="IBRION">     2</i>
  <i type="int" name="NSW">    50</i>
  <i type="int" name="ISIF">     3</i>
  <i type="int" name="ISYM">     0</i>
  <i name="ENCUT">    600.00000000</i>
  <i type="string" name="LREAL"> Auto</i>
  <i type="int" name="ISMEAR">     1</i>
  <i name="SIGMA">      0.20000000</i>
  <v type="int" name="KPOINT_BSE">    -1     0     0     0</v>
  <i type="string" name="GGA"> PS</i>
 </incar>
 <structure name="primitive_cell" >
  <crystal>
   <varray name="basis" >
    <v>      -3.19000000      -3.19000000      -3.19000000 </v>
    <v>       1.59500000       1.59500000      -7.97500000 </v>
    <v>       7.97500000      -7.97500000      -1.59500000 </v>
   </varray>
   <i name="volume">    486.92638500 </i>
   <varray name="rec_basis" >
    <v>      -0.13584117      -0.12539185      -0.05224660 </v>
    <v>       0.04179728       0.06269592      -0.10449321 </v>
    <v>       0.06269592      -0.06269592       0.00000000 </v>
   </varray>
  </crystal>
  <varray name="positions" >
   <v>      -0.03333333      -0.06666667       0.40000000 </v>
   <v>       0.30000000      -0.40000000       0.40000000 </v>
   <v>      -0.10000000      -0.20000000       0.20000000 </v>
   <v>       0.06666667       0.13333333       0.20000000 </v>
   <v>       0.46666667      -0.06666667       0.40000000 </v>
   <v>      -0.13333333      -0.26666667      -0.40000000 </v>
   <v>       0.03333333       0.06666667      -0.40000000 </v>
   <v>      -0.36666667       0.26666667       0.40000000 </v>
   <v>       0.40000000      -0.20000000       0.20000000 </v>
   <v>      -0.20000000      -0.40000000       0.40000000 </v>
   <v>      -0.43333333       0.13333333       0.20000000 </v>
   <v>       0.36666667      -0.26666667      -0.40000000 </v>
   <v>       0.13333333       0.26666667       0.40000000 </v>
   <v>       0.23333333       0.46666667       0.20000000 </v>
   <v>       0.20000000       0.40000000      -0.40000000 </v>
   <v>       0.00000000       0.00000000       0.00000000 </v>
   <v>      -0.06666667      -0.13333333      -0.20000000 </v>
   <v>      -0.30000000       0.40000000      -0.40000000 </v>
   <v>      -0.26666667       0.46666667       0.20000000 </v>
   <v>       0.33333333      -0.33333333       0.00000000 </v>
   <v>       0.43333333      -0.13333333      -0.20000000 </v>
   <v>      -0.50000000       0.00000000       0.00000000 </v>
   <v>       0.26666667      -0.46666667      -0.20000000 </v>
   <v>      -0.33333333       0.33333333       0.00000000 </v>
   <v>      -0.40000000       0.20000000      -0.20000000 </v>
   <v>      -0.16666667      -0.33333333       0.00000000 </v>
   <v>      -0.23333333      -0.46666667      -0.20000000 </v>
   <v>       0.16666667       0.33333333       0.00000000 </v>
   <v>       0.10000000       0.20000000      -0.20000000 </v>
  </varray>
 </structure>
 <varray name="primitive_index" >
  <v type="int" >        1 </v>
  <v type="int" >       18 </v>
  <v type="int" >        7 </v>
  <v type="int" >       24 </v>
  <v type="int" >       20 </v>
  <v type="int" >       19 </v>
  <v type="int" >        6 </v>
  <v type="int" >        2 </v>
  <v type="int" >       16 </v>
  <v type="int" >        8 </v>
  <v type="int" >       15 </v>
  <v type="int" >       11 </v>
  <v type="int" >       12 </v>
  <v type="int" >       29 </v>
  <v type="int" >       23 </v>
  <v type="int" >        4 </v>
  <v type="int" >       14 </v>
  <v type="int" >       26 </v>
  <v type="int" >        9 </v>
  <v type="int" >       28 </v>
  <v type="int" >       17 </v>
  <v type="int" >        3 </v>
  <v type="int" >       22 </v>
  <v type="int" >       10 </v>
  <v type="int" >       27 </v>
  <v type="int" >       13 </v>
  <v type="int" >       25 </v>
  <v type="int" >       21 </v>
  <v type="int" >        5 </v>
 </varray>
 <kpoints>
  <generation param="Gamma">
   <v type="int" name="divisions">       5        5        5 </v>
   <v name="usershift">      0.00000000       0.00000000       0.00000000 </v>
   <v name="genvec1">      0.20000000      -0.00000000      -0.00000000 </v>
   <v name="genvec2">      0.00000000       0.20000000       0.00000000 </v>
   <v name="genvec3">      0.00000000       0.00000000       0.20000000 </v>
   <v name="shift">      0.00000000       0.00000000       0.00000000 </v>
  </generation>
  <varray name="kpointlist" >
   <v>       0.00000000       0.00000000       0.00000000 </v>
   <v>       0.20000000      -0.00000000       0.00000000 </v>
   <v>       0.40000000      -0.00000000       0.00000000 </v>
   <v>       0.00000000       0.20000000       0.00000000 </v>
   <v>       0.20000000       0.20000000      -0.00000000 </v>
   <v>       0.40000000       0.20000000      -0.00000000 </v>
   <v>      -0.40000000       0.20000000      -0.00000000 </v>
   <v>      -0.20000000       0.20000000       0.00000000 </v>
   <v>       0.00000000       0.40000000       0.00000000 </v>
   <v>       0.20000000       0.40000000       0.00000000 </v>
   <v>       0.40000000       0.40000000      -0.00000000 </v>
   <v>      -0.40000000       0.40000000       0.00000000 </v>
   <v>      -0.20000000       0.40000000       0.00000000 </v>
   <v>       0.00000000       0.00000000       0.20000000 </v>
   <v>       0.20000000      -0.00000000       0.20000000 </v>
   <v>       0.40000000       0.00000000       0.20000000 </v>
   <v>      -0.40000000       0.00000000       0.20000000 </v>
   <v>      -0.20000000       0.00000000       0.20000000 </v>
   <v>       0.00000000       0.20000000       0.20000000 </v>
   <v>       0.20000000       0.20000000       0.20000000 </v>
   <v>       0.40000000       0.20000000       0.20000000 </v>
   <v>      -0.40000000       0.20000000       0.20000000 </v>
   <v>      -0.20000000       0.20000000       0.20000000 </v>
   <v>       0.00000000       0.40000000       0.20000000 </v>
   <v>       0.20000000       0.40000000       0.20000000 </v>
   <v>       0.40000000       0.40000000       0.20000000 </v>
   <v>      -0.40000000       0.40000000       0.20000000 </v>
   <v>      -0.20000000       0.40000000       0.20000000 </v>
   <v>       0.00000000      -0.40000000       0.20000000 </v>
   <v>       0.20000000      -0.40000000       0.20000000 </v>
   <v>       0.40000000      -0.40000000       0.20000000 </v>
   <v>      -0.40000000      -0.40000000       0.20000000 </v>
   <v>      -0.20000000      -0.40000000       0.20000000 </v>
   <v>       0.00000000      -0.20000000       0.20000000 </v>
   <v>       0.20000000      -0.20000000       0.20000000 </v>
   <v>       0.40000000      -0.20000000       0.20000000 </v>
   <v>      -0.40000000      -0.20000000       0.20000000 </v>
   <v>      -0.20000000      -0.20000000       0.20000000 </v>
   <v>       0.00000000       0.00000000       0.40000000 </v>
   <v>       0.20000000      -0.00000000       0.40000000 </v>
   <v>       0.40000000      -0.00000000       0.40000000 </v>
   <v>      -0.40000000       0.00000000       0.40000000 </v>
   <v>      -0.20000000       0.00000000       0.40000000 </v>
   <v>      -0.00000000       0.20000000       0.40000000 </v>
   <v>       0.20000000       0.20000000       0.40000000 </v>
   <v>       0.40000000       0.20000000       0.40000000 </v>
   <v>      -0.40000000       0.20000000       0.40000000 </v>
   <v>      -0.20000000       0.20000000       0.40000000 </v>
   <v>       0.00000000       0.40000000       0.40000000 </v>
   <v>       0.20000000       0.40000000       0.40000000 </v>
   <v>       0.40000000       0.40000000       0.40000000 </v>
   <v>      -0.40000000       0.40000000       0.40000000 </v>
   <v>      -0.20000000       0.40000000       0.40000000 </v>
   <v>       0.00000000      -0.40000000       0.40000000 </v>
   <v>       0.20000000      -0.40000000       0.40000000 </v>
   <v>       0.40000000      -0.40000000       0.40000000 </v>
   <v>      -0.40000000      -0.40000000       0.40000000 </v>
   <v>      -0.20000000      -0.40000000       0.40000000 </v>
   <v>       0.00000000      -0.20000000       0.40000000 </v>
   <v>       0.20000000      -0.20000000       0.40000000 </v>
   <v>       0.40000000      -0.20000000       0.40000000 </v>
   <v>      -0.40000000      -0.20000000       0.40000000 </v>
   <v>      -0.20000000      -0.20000000       0.40000000 </v>
  </varray>
  <varray name="weights" >
   <v>       0.00800000 </v>
   <v>       0.01600000 </v>
   <v>       0.01600000 </v>
   <v>       0.01600000 </v>
   <v>       0.01600000 </v>
   <v>       0.01600000 </v>
   <v>       0.01600000 </v>
   <v>       0.01600000 </v>
   <v>       0.01600000 </v>
   <v>       0.01600000 </v>
   <v>       0.01600000 </v>
   <v>       0.01600000 </v>
   <v>       0.01600000 </v>
   <v>       0.01600000 </v>
   <v>       0.01600000 </v>
   <v>       0.01600000 </v>
   <v>       0.01600000 </v>
   <v>       0.01600000 </v>
   <v>       0.01600000 </v>
   <v>       0.01600000 </v>
   <v>       0.01600000 </v>
   <v>       0.01600000 </v>
   <v>       0.01600000 </v>
   <v>       0.01600000 </v>
   <v>       0.01600000 </v>
   <v>       0.01600000 </v>
   <v>       0.01600000 </v>
   <v>       0.01600000 </v>
   <v>       0.01600000 </v>
   <v>       0.01600000 </v>
   <v>       0.01600000 </v>
   <v>       0.01600000 </v>
   <v>       0.01600000 </v>
   <v>       0.01600000 </v>
   <v>       0.01600000 </v>
   <v>       0.01600000 </v>
   <v>       0.01600000 </v>
   <v>       0.01600000 </v>
   <v>       0.01600000 </v>
   <v>       0.01600000 </v>
   <v>       0.01600000 </v>
   <v>       0.01600000 </v>
   <v>       0.01600000 </v>
   <v>       0.01600000 </v>
   <v>       0.01600000 </v>
   <v>       0.01600000 </v>
   <v>       0.01600000 </v>
   <v>       0.01600000 </v>
   <v>       0.01600000 </v>
   <v>       0.01600000 </v>
   <v>       0.01600000 </v>
   <v>       0.01600000 </v>
   <v>       0.01600000 </v>
   <v>       0.01600000 </v>
   <v>       0.01600000 </v>
   <v>       0.01600000 </v>
   <v>       0.01600000 </v>
   <v>       0.01600000 </v>
   <v>       0.01600000 </v>
   <v>       0.01600000 </v>
   <v>       0.01600000 </v>
   <v>       0.01600000 </v>
   <v>       0.01600000 </v>
  </varray>
 </kpoints>
 <parameters>
  <separator name="general" >
   <i type="string" name="SYSTEM">SQS with 1 vacancy for VFE and VRV</i>
   <i type="logical" name="LCOMPAT"> F  </i>
  </separator>
  <separator name="electronic" >
   <i type="string" name="PREC">normal</i>
   <i name="ENMAX">    600.00000000</i>
   <i name="ENAUG">    455.65900000</i>
   <i name="EDIFF">      0.00010000</i>
   <i type="int" name="IALGO">    38</i>
   <i type="int" name="IWAVPR">    11</i>
   <i type="int" name="NBANDS">   120</i>
   <i name="NELECT">    198.00000000</i>
   <i type="int" name="TURBO">     0</i>
   <i type="int" name="IRESTART">     0</i>
   <i type="int" name="NREBOOT">     0</i>
   <i type="int" name="NMIN">     0</i>
   <i name="EREF">      0.00000000</i>
   <separator name="electronic smearing" >
    <i type="int" name="ISMEAR">     1</i>
    <i name="SIGMA">      0.20000000</i>
    <i name="KSPACING">      0.50000000</i>
    <i type="logical" name="KGAMMA"> T  </i>
   </separator>
   <separator name="electronic projectors" >
    <i type="logical" name="LREAL"> T  </i>
    <v name="ROPT">     -0.00050000     -0.00050000     -0.00050000     -0.00050000     -0.00050000</v>
    <i type="int" name="LMAXPAW">  -100</i>
    <i type="int" name="LMAXMIX">     2</i>
    <i type="logical" name="NLSPLINE"> F  </i>
   </separator>
   <separator name="electronic startup" >
    <i type="int" name="ISTART">     0</i>
    <i type="int" name="ICHARG">     2</i>
    <i type="int" name="INIWAV">     1</i>
   </separator>
   <separator name="electronic spin" >
    <i type="int" name="ISPIN">     1</i>
    <i type="logical" name="LNONCOLLINEAR"> F  </i>
    <v name="MAGMOM">      1.00000000      1.00000000      1.00000000      1.00000000      1.00000000      1.00000000      1.00000000      1.00000000      1.00000000      1.00000000      1.00000000      1.00000000      1.00000000      1.00000000      1.00000000      1.00000000      1.00000000      1.00000000      1.00000000      1.00000000
      1.00000000      1.00000000      1.00000000      1.00000000      1.00000000      1.00000000      1.00000000      1.00000000      1.00000000</v>
    <i name="NUPDOWN">     -1.00000000</i>
    <i type="logical" name="LSORBIT"> F  </i>
    <v name="SAXIS">      0.00000000      0.00000000      1.00000000</v>
    <i type="logical" name="LSPIRAL"> F  </i>
    <v name="QSPIRAL">      0.00000000      0.00000000      0.00000000</v>
    <i type="logical" name="LZEROZ"> F  </i>
   </separator>
   <separator name="electronic exchange-correlation" >
    <i type="logical" name="LASPH"> F  </i>
    <i type="logical" name="LMETAGGA"> F  </i>
   </separator>
   <separator name="electronic convergence" >
    <i type="int" name="NELM">    60</i>
    <i type="int" name="NELMDL">    -5</i>
    <i type="int" name="NELMIN">     2</i>
    <i name="ENINI">    600.00000000</i>
    <separator name="electronic convergence detail" >
     <i type="logical" name="LDIAG"> T  </i>
     <i type="logical" name="LSUBROT"> F  </i>
     <i name="WEIMIN">      0.00100000</i>
     <i name="EBREAK">      0.00000021</i>
     <i name="DEPER">      0.30000000</i>
     <i type="int" name="NRMM">     4</i>
     <i name="TIME">      0.40000000</i>
    </separator>
   </separator>
   <separator name="electronic mixer" >
    <i name="AMIX">      0.40000000</i>
    <i name="BMIX">      1.00000000</i>
    <i name="AMIN">      0.10000000</i>
    <i name="AMIX_MAG">      1.60000000</i>
    <i name="BMIX_MAG">      1.00000000</i>
    <separator name="electronic mixer details" >
     <i type="int" name="IMIX">     4</i>
     <i type="logical" name="MIXFIRST"> F  </i>
     <i type="int" name="MAXMIX">   -45</i>
     <i name="WC">    100.00000000</i>
     <i type="int" name="INIMIX">     1</i>
     <i type="int" name="MIXPRE">     1</i>
     <i type="int" name="MREMOVE">     5</i>
    </separator>
   </separator>
   <separator name="electronic dipolcorrection" >
    <i type="logical" name="LDIPOL"> F  </i>
    <i type="logical" name="LMONO"> F  </i>
    <i type="int" name="IDIPOL">     0</i>
    <i name="EPSILON">      1.00000000</i>
    <v name="DIPOL">   -100.00000000   -100.00000000   -100.00000000</v>
    <i name="EFIELD">      0.00000000</i>
   </separator>
  </separator>
  <separator name="grids" >
   <i type="int" name="NGX">    36</i>
   <i type="int" name="NGY">    50</i>
   <i type="int" name="NGZ">    70</i>
   <i type="int" name="NGXF">    72</i>
   <i type="int" name="NGYF">   100</i>
   <i type="int" name="NGZF">   140</i>
   <i type="logical" name="ADDGRID"> F  </i>
  </separator>
  <separator name="ionic" >
   <i type="int" name="NSW">    50</i>
   <i type="int" name="IBRION">     2</i>
   <i type="int" name="MDALGO">     0</i>
   <i type="int" name="ISIF">     3</i>
   <i name="PSTRESS">      0.00000000</i>
   <i name="EDIFFG">      0.00100000</i>
   <i type="int" name="NFREE">     1</i>
   <i name="POTIM">      0.50000000</i>
   <i name="SMASS">     -3.00000000</i>
   <i name="SCALEE">      1.00000000</i>
  </separator>
  <separator name="ionic md" >
   <i name="TEBEG">      0.00010000</i>
   <i name="TEEND">      0.00010000</i>
   <i type="int" name="NBLOCK">     1</i>
   <i type="int" name="KBLOCK">    50</i>
   <i type="int" name="NPACO">   256</i>
   <i name="APACO">     16.00000000</i>
  </separator>
  <separator name="symmetry" >
   <i type="int" name="ISYM">     0</i>
   <i name="SYMPREC">      0.00001000</i>
  </separator>
  <separator name="dos" >
   <i type="int" name="LORBIT">     0</i>
   <v name="RWIGS">     -1.00000000     -1.00000000     -1.00000000     -1.00000000     -1.00000000</v>
   <i type="int" name="NEDOS">   301</i>
   <i name="EMIN">     10.00000000</i>
   <i name="EMAX">    -10.00000000</i>
   <i name="EFERMI">      0.00000000</i>
  </separator>
  <separator name="writing" >
   <i type="int" name="NWRITE">     2</i>
   <i type="logical" name="LWAVE"> T  </i>
   <i type="logical" name="LDOWNSAMPLE"> F  </i>
   <i type="logical" name="LCHARG"> T  </i>
   <i type="logical" name="LPARD"> F  </i>
   <i type="logical" name="LVTOT"> F  </i>
   <i type="logical" name="LVHAR"> F  </i>
   <i type="logical" name="LELF"> F  </i>
   <i type="logical" name="LOPTICS"> F  </i>
   <v name="STM">      0.00000000      0.00000000      0.00000000      0.00000000      0.00000000      0.00000000      0.00000000</v>
  </separator>
  <separator name="performance" >
   <i type="int" name="NPAR">     8</i>
   <i type="int" name="NSIM">     4</i>
   <i type="int" name="NBLK">    -1</i>
   <i type="logical" name="LPLANE"> T  </i>
   <i type="logical" name="LSCALAPACK"> T  </i>
   <i type="logical" name="LSCAAWARE"> F  </i>
   <i type="logical" name="LSCALU"> F  </i>
   <i type="logical" name="LASYNC"> F  </i>
   <i type="logical" name="LORBITALREAL"> F  </i>
  </separator>
  <separator name="miscellaneous" >
   <i type="int" name="IDIOT">     3</i>
   <i type="int" name="ISPECIAL">     0</i>
   <i type="logical" name="LMUSIC"> F  </i>
   <v name="POMASS">     92.91000000     95.94000000    180.94800000     47.88000000    183.85000000</v>
   <v name="DARWINR">      0.00000000      0.00000000      0.00000000      0.00000000      0.00000000</v>
   <v name="DARWINV">      1.00000000      1.00000000      1.00000000      1.00000000      1.00000000</v>
   <i type="logical" name="LCORR"> T  </i>
  </separator>
  <i type="logical" name="GGA_COMPAT"> T  </i>
  <i type="logical" name="LBERRY"> F  </i>
  <i type="int" name="ICORELEVEL">     0</i>
  <i type="logical" name="LDAU"> F  </i>
  <i type="int" name="I_CONSTRAINED_M">     0</i>
  <separator name="electronic exchange-correlation" >
   <i type="string" name="GGA">PS</i>
   <i type="int" name="VOSKOWN">     0</i>
   <i type="logical" name="LHFCALC"> F  </i>
   <i type="string" name="PRECFOCK"></i>
   <i type="logical" name="LSYMGRAD"> F  </i>
   <i type="logical" name="LHFONE"> F  </i>
   <i type="logical" name="LRHFCALC"> F  </i>
   <i type="logical" name="LTHOMAS"> F  </i>
   <i type="logical" name="LMODELHF"> F  </i>
   <i name="ENCUT4O">     -1.00000000</i>
   <i type="int" name="EXXOEP">     0</i>
   <i type="int" name="FOURORBIT">     0</i>
   <i name="AEXX">      0.00000000</i>
   <i name="HFALPHA">      0.00000000</i>
   <i name="MCALPHA">      0.00000000</i>
   <i name="ALDAX">      1.00000000</i>
   <i name="AGGAX">      1.00000000</i>
   <i name="ALDAC">      1.00000000</i>
   <i name="AGGAC">      1.00000000</i>
   <i type="int" name="NKREDX">     1</i>
   <i type="int" name="NKREDY">     1</i>
   <i type="int" name="NKREDZ">     1</i>
   <i type="logical" name="SHIFTRED"> F  </i>
   <i type="logical" name="ODDONLY"> F  </i>
   <i type="logical" name="EVENONLY"> F  </i>
   <i type="int" name="LMAXFOCK">     0</i>
   <i type="int" name="NMAXFOCKAE">     0</i>
   <i type="logical" name="LFOCKAEDFT"> F  </i>
   <i name="HFSCREEN">      0.00000000</i>
   <i name="HFSCREENC">      0.00000000</i>
   <i type="int" name="NBANDSGWLOW">     0</i>
  </separator>
  <separator name="vdW DFT" >
   <i type="logical" name="LUSE_VDW"> F  </i>
   <i name="Zab_VDW">     -0.84910000</i>
   <i name="PARAM1">      0.12340000</i>
   <i name="PARAM2">      1.00000000</i>
   <i name="PARAM3">      0.00000000</i>
  </separator>
  <separator name="model GW" >
   <i type="int" name="MODEL_GW">     0</i>
   <i name="MODEL_EPS0">     10.07433900</i>
   <i name="MODEL_ALPHA">      1.00000000</i>
  </separator>
  <separator name="linear response parameters" >
   <i type="logical" name="LEPSILON"> F  </i>
   <i type="logical" name="LRPA"> F  </i>
   <i type="logical" name="LNABLA"> F  </i>
   <i type="logical" name="LVEL"> F  </i>
   <i type="int" name="KINTER">     0</i>
   <i name="CSHIFT">      0.10000000</i>
   <i name="OMEGAMAX">     -1.00000000</i>
   <i name="DEG_THRESHOLD">      0.00200000</i>
   <i name="RTIME">     -0.10000000</i>
   <i name="WPLASMAI">      0.00000000</i>
   <v name="DFIELD">      0.00000000      0.00000000      0.00000000</v>
   <v name="WPLASMA">      0.00000000      0.00000000      0.00000000      0.00000000      0.00000000      0.00000000      0.00000000      0.00000000      0.00000000</v>
  </separator>
  <separator name="orbital magnetization" >
   <i type="logical" name="NUCIND"> F  </i>
   <v name="MAGPOS">      0.00000000      0.00000000      0.00000000</v>
   <i type="logical" name="LNICSALL"> T  </i>
   <i type="logical" name="ORBITALMAG"> F  </i>
   <i type="logical" name="LMAGBLOCH"> F  </i>
   <i type="logical" name="LCHIMAG"> F  </i>
   <i type="logical" name="LGAUGE"> T  </i>
   <i type="int" name="MAGATOM">     0</i>
   <v name="MAGDIPOL">      0.00000000      0.00000000      0.00000000</v>
   <v name="AVECCONST">      0.00000000      0.00000000      0.00000000</v>
  </separator>
  <separator name="response functions" >
   <i type="logical" name="LADDER"> F  </i>
   <i type="logical" name="LRPAFORCE"> F  </i>
   <i type="logical" name="LFXC"> F  </i>
   <i type="logical" name="LHARTREE"> T  </i>
   <i type="int" name="IBSE">     0</i>
   <v type="int" name="KPOINT">    -1     0     0     0</v>
   <i type="logical" name="LTCTE"> F  </i>
   <i type="logical" name="LTETE"> F  </i>
   <i type="logical" name="LTRIPLET"> F  </i>
   <i type="logical" name="LFXCEPS"> F  </i>
   <i type="logical" name="LFXHEG"> F  </i>
   <i type="int" name="NATURALO">     2</i>
   <i type="logical" name="L2ORDER"> F  </i>
   <i type="logical" name="LMP2LT"> F  </i>
   <i type="logical" name="LUSEW"> F  </i>
   <i name="ENCUTGW">     -2.00000000</i>
   <i name="ENCUTGWSOFT">     -2.00000000</i>
   <i name="ENCUTLF">     -1.00000000</i>
   <i type="int" name="LMAXMP2">    -1</i>
   <i name="SCISSOR">      0.00000000</i>
   <i type="int" name="NOMEGA">     0</i>
   <i type="int" name="NOMEGAR">     0</i>
   <i type="int" name="NBANDSGW">    -1</i>
   <i type="int" name="NBANDSO">    -1</i>
   <i type="int" name="NBANDSV">    -1</i>
   <i type="int" name="NELM">     1</i>
   <i type="int" name="NELMHF">     1</i>
   <i type="int" name="DIM">     3</i>
   <i type="int" name="ANTIRES">     0</i>
   <i name="OMEGAMAX">    -30.00000000</i>
   <i name="OMEGAMIN">    -30.00000000</i>
   <i name="OMEGATL">   -200.00000000</i>
   <i type="int" name="OMEGAGRID">   140</i>
   <i name="CSHIFT">     -0.10000000</i>
   <i type="logical" name="SELFENERGY"> F  </i>
   <i type="logical" name="LSPECTRAL"> F  </i>
   <i type="logical" name="LSPECTRALGW"> F  </i>
   <i type="logical" name="LSINGLES"> F  </i>
   <i type="logical" name="LFERMIGW"> F  </i>
   <i type="logical" name="ODDONLYGW"> F  </i>
   <i type="logical" name="EVENONLYGW"> F  </i>
   <i type="int" name="NKREDLFX">     1</i>
   <i type="int" name="NKREDLFY">     1</i>
   <i type="int" name="NKREDLFZ">     1</i>
   <i type="int" name="MAXMEM">  2800</i>
   <i type="int" name="TELESCOPE">     0</i>
   <i type="int" name="TAUPAR">     1</i>
   <i type="int" name="OMEGAPAR">    -1</i>
   <i name="LAMBDA">      1.00000000</i>
  </separator>
  <separator name="External order field" >
   <i name="OFIELD_KAPPA">      0.00000000</i>
   <v name="OFIELD_K">      0.00000000      0.00000000      0.00000000</v>
   <i name="OFIELD_Q6_NEAR">      0.00000000</i>
   <i name="OFIELD_Q6_FAR">      0.00000000</i>
   <i name="OFIELD_A">      0.00000000</i>
  </separator>
  <separator name="solvation model" >
   <i type="logical" name="LSOL"> F  </i>
  </separator>
 </parameters>
 <atominfo>
  <atoms>      29 </atoms>
  <types>       5 </types>
  <array name="atoms" >
   <dimension dim="1">ion</dimension>
   <field type="string">element</field>
   <field type="int">atomtype</field>
   <set>
    <rc><c>Nb</c><c>   1</c></rc>
    <rc><c>Nb</c><c>   1</c></rc>
    <rc><c>Nb</c><c>   1</c></rc>
    <rc><c>Nb</c><c>   1</c></rc>
    <rc><c>Nb</c><c>   1</c></rc>
    <rc><c>Nb</c><c>   1</c></rc>
    <rc><c>Mo</c><c>   2</c></rc>
    <rc><c>Mo</c><c>   2</c></rc>
    <rc><c>Mo</c><c>   2</c></rc>
    <rc><c>Mo</c><c>   2</c></rc>
    <rc><c>Mo</c><c>   2</c></rc>
    <rc><c>Mo</c><c>   2</c></rc>
    <rc><c>Ta</c><c>   3</c></rc>
    <rc><c>Ta</c><c>   3</c></rc>
    <rc><c>Ta</c><c>   3</c></rc>
    <rc><c>Ta</c><c>   3</c></rc>
    <rc><c>Ta</c><c>   3</c></rc>
    <rc><c>Ta</c><c>   3</c></rc>
    <rc><c>Ti</c><c>   4</c></rc>
    <rc><c>Ti</c><c>   4</c></rc>
    <rc><c>Ti</c><c>   4</c></rc>
    <rc><c>Ti</c><c>   4</c></rc>
    <rc><c>Ti</c><c>   4</c></rc>
    <rc><c>Ti</c><c>   4</c></rc>
    <rc><c>W </c><c>   5</c></rc>
    <rc><c>W </c><c>   5</c></rc>
    <rc><c>W </c><c>   5</c></rc>
    <rc><c>W </c><c>   5</c></rc>
    <rc><c>W </c><c>   5</c></rc>
   </set>
  </array>
  <array name="atomtypes" >
   <dimension dim="1">type</dimension>
   <field type="int">atomspertype</field>
   <field type="string">element</field>
   <field>mass</field>
   <field>valence</field>
   <field type="string">pseudopotential</field>
   <set>
    <rc><c>   6</c><c>Nb</c><c>     92.91000000</c><c>     13.00000000</c><c>  PAW_PBE Nb_sv 25May2007               </c></rc>
    <rc><c>   6</c><c>Mo</c><c>     95.94000000</c><c>      6.00000000</c><c>  PAW_PBE Mo 08Apr2002                  </c></rc>
    <rc><c>   6</c><c>Ta</c><c>    180.94800000</c><c>      5.00000000</c><c>  PAW_PBE Ta 17Jan2003                  </c></rc>
    <rc><c>   6</c><c>Ti</c><c>     47.88000000</c><c>      4.00000000</c><c>  PAW_PBE Ti 08Apr2002                  </c></rc>
    <rc><c>   5</c><c>W </c><c>    183.85000000</c><c>      6.00000000</c><c>  PAW_PBE W 08Apr2002                   </c></rc>
   </set>
  </array>
 </atominfo>
 <structure name="initialpos" >
  <crystal>
   <varray name="basis" >
    <v>      -3.19000000      -3.19000000      -3.19000000 </v>
    <v>       1.59500000       1.59500000      -7.97500000 </v>
    <v>       7.97500000      -7.97500000      -1.59500000 </v>
   </varray>
   <i name="volume">    486.92638500 </i>
   <varray name="rec_basis" >
    <v>      -0.13584117      -0.12539185      -0.05224660 </v>
    <v>       0.04179728       0.06269592      -0.10449321 </v>
    <v>       0.06269592      -0.06269592       0.00000000 </v>
   </varray>
  </crystal>
  <varray name="positions" >
   <v>       0.96666667       0.93333333       0.40000000 </v>
   <v>       0.63333333       0.26666667       0.40000000 </v>
   <v>       0.50000000       0.00000000       0.00000000 </v>
   <v>       0.00000000       0.00000000       0.00000000 </v>
   <v>       0.10000000       0.20000000       0.80000000 </v>
   <v>       0.03333333       0.06666667       0.60000000 </v>
   <v>       0.90000000       0.80000000       0.20000000 </v>
   <v>       0.80000000       0.60000000       0.40000000 </v>
   <v>       0.73333333       0.46666667       0.20000000 </v>
   <v>       0.66666667       0.33333333       0.00000000 </v>
   <v>       0.36666667       0.73333333       0.60000000 </v>
   <v>       0.13333333       0.26666667       0.40000000 </v>
   <v>       0.83333333       0.66666667       0.00000000 </v>
   <v>       0.93333333       0.86666667       0.80000000 </v>
   <v>       0.56666667       0.13333333       0.20000000 </v>
   <v>       0.40000000       0.80000000       0.20000000 </v>
   <v>       0.43333333       0.86666667       0.80000000 </v>
   <v>       0.30000000       0.60000000       0.40000000 </v>
   <v>       0.86666667       0.73333333       0.60000000 </v>
   <v>       0.46666667       0.93333333       0.40000000 </v>
   <v>       0.16666667       0.33333333       0.00000000 </v>
   <v>       0.26666667       0.53333333       0.80000000 </v>
   <v>       0.20000000       0.40000000       0.60000000 </v>
   <v>       0.06666667       0.13333333       0.20000000 </v>
   <v>       0.76666667       0.53333333       0.80000000 </v>
   <v>       0.70000000       0.40000000       0.60000000 </v>
   <v>       0.60000000       0.20000000       0.80000000 </v>
   <v>       0.33333333       0.66666667       0.00000000 </v>
   <v>       0.23333333       0.46666667       0.20000000 </v>
  </varray>
 </structure>
 <calculation>
  <scstep>
   <time name="dav">   18.18   18.21</time>
   <time name="total">   18.23   18.26</time>
   <energy>
    <i name="alphaZ">   1291.39724513 </i>
    <i name="ewald"> -11625.59886027 </i>
    <i name="hartreedc">  -3049.21216713 </i>
    <i name="XCdc">   -857.41785633 </i>
    <i name="pawpsdc">  12063.15090526 </i>
    <i name="pawaedc"> -10557.55889498 </i>
    <i name="eentropy">      0.00388495 </i>
    <i name="bandstr">   1880.41426369 </i>
    <i name="atom">  13006.21773402 </i>
    <i name="e_fr_energy">   2151.39625435 </i>
    <i name="e_wo_entrp">   2151.39236940 </i>
    <i name="e_0_energy">   2151.39495937 </i>
   </energy>
  </scstep>
  <scstep>
   <time name="dav">   18.11   18.13</time>
   <time name="total">   18.11   18.14</time>
   <energy>
    <i name="e_fr_energy">     72.79647790 </i>
    <i name="e_wo_entrp">     72.79440330 </i>
    <i name="e_0_energy">     72.79578637 </i>
   </energy>
  </scstep>
  <scstep>
   <time name="dav">   28.29   28.33</time>
   <time name="total">   28.30   28.33</time>
   <energy>
    <i name="e_fr_energy">   -300.35343474 </i>
    <i name="e_wo_entrp">   -300.35453090 </i>
    <i name="e_0_energy">   -300.35380012 </i>
   </energy>
  </scstep>
  <scstep>
   <time name="dav">   25.65   25.68</time>
   <time name="total">   25.65   25.69</time>
   <energy>
    <i name="e_fr_energy">   -346.83130731 </i>
    <i name="e_wo_entrp">   -346.82548248 </i>
    <i name="e_0_energy">   -346.82936570 </i>
   </energy>
  </scstep>
  <scstep>
   <time name="dav">   30.62   30.65</time>
   <time name="total">   31.19   31.22</time>
   <energy>
    <i name="e_fr_energy">   -351.94685702 </i>
    <i name="e_wo_entrp">   -351.94008431 </i>
    <i name="e_0_energy">   -351.94459945 </i>
   </energy>
  </scstep>
  <scstep>
   <time name="dav">   23.38   23.41</time>
   <time name="total">   23.98   24.01</time>
   <energy>
    <i name="e_fr_energy">   -342.49257709 </i>
    <i name="e_wo_entrp">   -342.48107085 </i>
    <i name="e_0_energy">   -342.48874168 </i>
   </energy>
  </scstep>
  <scstep>
   <time name="dav">   24.17   24.20</time>
   <time name="total">   24.77   24.80</time>
   <energy>
    <i name="e_fr_energy">   -356.25743955 </i>
    <i name="e_wo_entrp">   -356.26664435 </i>
    <i name="e_0_energy">   -356.26050782 </i>
   </energy>
  </scstep>
  <scstep>
   <time name="dav">   24.79   24.82</time>
   <time name="total">   25.39   25.42</time>
   <energy>
    <i name="e_fr_energy">   -345.32191743 </i>
    <i name="e_wo_entrp">   -345.32587519 </i>
    <i name="e_0_energy">   -345.32323668 </i>
   </energy>
  </scstep>
  <scstep>
   <time name="dav">   23.91   23.94</time>
   <time name="total">   24.50   24.54</time>
   <energy>
    <i name="e_fr_energy">   -334.25338118 </i>
    <i name="e_wo_entrp">   -334.24619768 </i>
    <i name="e_0_energy">   -334.25098668 </i>
   </energy>
  </scstep>
  <scstep>
   <time name="dav">   24.52   24.58</time>
   <time name="total">   25.13   25.20</time>
   <energy>
    <i name="e_fr_energy">   -331.02161394 </i>
    <i name="e_wo_entrp">   -331.01495514 </i>
    <i name="e_0_energy">   -331.01939434 </i>
   </energy>
  </scstep>
  <scstep>
   <time name="dav">   24.90   24.97</time>
   <time name="total">   25.49   25.56</time>
   <energy>
    <i name="e_fr_energy">   -329.74106308 </i>
    <i name="e_wo_entrp">   -329.73263409 </i>
    <i name="e_0_energy">   -329.73825342 </i>
   </energy>
  </scstep>
  <scstep>
   <time name="dav">   24.52   24.59</time>
   <time name="total">   25.12   25.19</time>
   <energy>
    <i name="e_fr_energy">   -329.45696792 </i>
    <i name="e_wo_entrp">   -329.44786830 </i>
    <i name="e_0_energy">   -329.45393471 </i>
   </energy>
  </scstep>
  <scstep>
   <time name="dav">   24.55   24.58</time>
   <time name="total">   25.15   25.19</time>
   <energy>
    <i name="e_fr_energy">   -329.42322913 </i>
    <i name="e_wo_entrp">   -329.41395334 </i>
    <i name="e_0_energy">   -329.42013720 </i>
   </energy>
  </scstep>
  <scstep>
   <time name="dav">   25.02   25.06</time>
   <time name="total">   25.62   25.66</time>
   <energy>
    <i name="e_fr_energy">   -329.38532988 </i>
    <i name="e_wo_entrp">   -329.37464050 </i>
    <i name="e_0_energy">   -329.38176676 </i>
   </energy>
  </scstep>
  <scstep>
   <time name="dav">   24.85   24.88</time>
   <time name="total">   25.45   25.48</time>
   <energy>
    <i name="e_fr_energy">   -329.38230511 </i>
    <i name="e_wo_entrp">   -329.37045371 </i>
    <i name="e_0_energy">   -329.37835465 </i>
   </energy>
  </scstep>
  <scstep>
   <time name="dav">   25.09   25.12</time>
   <time name="total">   25.69   25.73</time>
   <energy>
    <i name="e_fr_energy">   -329.36874443 </i>
    <i name="e_wo_entrp">   -329.35773043 </i>
    <i name="e_0_energy">   -329.36507309 </i>
   </energy>
  </scstep>
  <scstep>
   <time name="dav">   24.11   24.14</time>
   <time name="total">   24.71   24.74</time>
   <energy>
    <i name="e_fr_energy">   -329.36519458 </i>
    <i name="e_wo_entrp">   -329.35417389 </i>
    <i name="e_0_energy">   -329.36152102 </i>
   </energy>
  </scstep>
  <scstep>
   <time name="dav">   23.67   23.70</time>
   <time name="total">   24.26   24.29</time>
   <energy>
    <i name="e_fr_energy">   -329.36337611 </i>
    <i name="e_wo_entrp">   -329.35266076 </i>
    <i name="e_0_energy">   -329.35980433 </i>
   </energy>
  </scstep>
  <scstep>
   <time name="dav">   23.37   23.44</time>
   <time name="total">   23.97   24.05</time>
   <energy>
    <i name="e_fr_energy">   -329.36316096 </i>
    <i name="e_wo_entrp">   -329.35243948 </i>
    <i name="e_0_energy">   -329.35958713 </i>
   </energy>
  </scstep>
  <scstep>
   <time name="dav">   22.30   22.33</time>
   <time name="total">   22.90   22.93</time>
   <energy>
    <i name="e_fr_energy">   -329.36308095 </i>
    <i name="e_wo_entrp">   -329.35239451 </i>
    <i name="e_0_energy">   -329.35951880 </i>
   </energy>
  </scstep>
  <scstep>
   <time name="dav">   18.77   18.79</time>
   <time name="total">   18.80   18.83</time>
   <energy>
    <i name="alphaZ">   1291.39724513 </i>
    <i name="ewald"> -11625.59886027 </i>
    <i name="hartreedc">  -2904.09225179 </i>
    <i name="XCdc">   -851.68621433 </i>
    <i name="pawpsdc">  20648.94740167 </i>
    <i name="pawaedc"> -19144.01988121 </i>
    <i name="eentropy">     -0.01068763 </i>
    <i name="bandstr">   -750.51749692 </i>
    <i name="atom">  13006.21773402 </i>
    <i name="e_fr_energy">   -329.36301134 </i>
    <i name="e_wo_entrp">   -329.35232370 </i>
    <i name="e_0_energy">   -329.35944879 </i>
   </energy>
  </scstep>
  <structure>
   <crystal>
    <varray name="basis" >
     <v>      -3.19000000      -3.19000000      -3.19000000 </v>
     <v>       1.59500000       1.59500000      -7.97500000 </v>
     <v>       7.97500000      -7.97500000      -1.59500000 </v>
    </varray>
    <i name="volume">    486.92638500 </i>
    <varray name="rec_basis" >
     <v>      -0.13584117      -0.12539185      -0.05224660 </v>
     <v>       0.04179728       0.06269592      -0.10449321 </v>
     <v>       0.06269592      -0.06269592       0.00000000 </v>
    </varray>
   </crystal>
   <varray name="positions" >
    <v>       0.96666667       0.93333333       0.40000000 </v>
    <v>       0.63333333       0.26666667       0.40000000 </v>
    <v>       0.50000000       0.00000000       0.00000000 </v>
    <v>       0.00000000       0.00000000       0.00000000 </v>
    <v>       0.10000000       0.20000000       0.80000000 </v>
    <v>       0.03333333       0.06666667       0.60000000 </v>
    <v>       0.90000000       0.80000000       0.20000000 </v>
    <v>       0.80000000       0.60000000       0.40000000 </v>
    <v>       0.73333333       0.46666667       0.20000000 </v>
    <v>       0.66666667       0.33333333       0.00000000 </v>
    <v>       0.36666667       0.73333333       0.60000000 </v>
    <v>       0.13333333       0.26666667       0.40000000 </v>
    <v>       0.83333333       0.66666667       0.00000000 </v>
    <v>       0.93333333       0.86666667       0.80000000 </v>
    <v>       0.56666667       0.13333333       0.20000000 </v>
    <v>       0.40000000       0.80000000       0.20000000 </v>
    <v>       0.43333333       0.86666667       0.80000000 </v>
    <v>       0.30000000       0.60000000       0.40000000 </v>
    <v>       0.86666667       0.73333333       0.60000000 </v>
    <v>       0.46666667       0.93333333       0.40000000 </v>
    <v>       0.16666667       0.33333333       0.00000000 </v>
    <v>       0.26666667       0.53333333       0.80000000 </v>
    <v>       0.20000000       0.40000000       0.60000000 </v>
    <v>       0.06666667       0.13333333       0.20000000 </v>
    <v>       0.76666667       0.53333333       0.80000000 </v>
    <v>       0.70000000       0.40000000       0.60000000 </v>
    <v>       0.60000000       0.20000000       0.80000000 </v>
    <v>       0.33333333       0.66666667       0.00000000 </v>
    <v>       0.23333333       0.46666667       0.20000000 </v>
   </varray>
  </structure>
  <varray name="forces" >
   <v>      -0.42719136       0.36943168       0.05504496 </v>
   <v>       0.28753886      -0.37385267       0.18010256 </v>
   <v>      -0.06930129       0.28361223      -0.31557666 </v>
   <v>       0.20358132      -0.00435098      -0.08847994 </v>
   <v>       0.28745363       0.49630070      -0.39013297 </v>
   <v>      -0.31019449       0.17234384      -0.27871530 </v>
   <v>       0.38436026      -0.46292659       0.09425712 </v>
   <v>      -0.38817243      -0.23627474       0.41274205 </v>
   <v>      -0.23218669       0.13698500      -0.06236037 </v>
   <v>       0.15777247       0.42877224      -0.53070365 </v>
   <v>      -0.01565335      -0.13175940       0.64245145 </v>
   <v>       0.13612199       0.53110487      -0.43996269 </v>
   <v>       0.22655193      -0.37666600       0.30122383 </v>
   <v>       0.09888122       0.12643380      -0.36519546 </v>
   <v>      -0.12634088       0.21423456       0.00528179 </v>
   <v>      -0.68186914      -0.19846755       0.42942521 </v>
   <v>      -0.80082108       0.29913734       0.55212653 </v>
   <v>       0.42019577      -0.36373943      -0.30324541 </v>
   <v>      -0.06409196       0.22956770       0.22624425 </v>
   <v>       0.71134978      -0.39476740       0.19749891 </v>
   <v>      -0.09502665      -0.27414163      -0.22819527 </v>
   <v>      -0.31997596       0.08083165      -0.29790059 </v>
   <v>      -0.47321217      -0.11233254       0.90776083 </v>
   <v>       0.79048995      -0.30643772      -0.67818996 </v>
   <v>      -0.30332288      -0.04038997       0.44902482 </v>
   <v>       0.59573527      -0.16472364      -1.00790386 </v>
   <v>      -0.12123428       0.25926279      -0.25573745 </v>
   <v>      -0.03583212      -0.46928697       0.84694424 </v>
   <v>       0.16439430       0.28209884      -0.05782897 </v>
  </varray>
  <varray name="stress" >
   <v>     -24.92822198      -3.08347778       2.17681524 </v>
   <v>      -3.08347775     -23.67443516       1.13717340 </v>
   <v>       2.17681524       1.13717315     -19.15581605 </v>
  </varray>
  <energy>
   <i name="e_fr_energy">   -329.36301134 </i>
   <i name="e_wo_entrp">   -329.35944879 </i>
   <i name="e_0_energy">     -0.01068763 </i>
  </energy>
  <time name="totalsc">  531.38  532.31</time>
 </calculation>
 <calculation>
  <scstep>
   <time name="dav">   19.39   19.42</time>
   <time name="total">   19.99   20.02</time>
   <energy>
    <i name="alphaZ">   1336.67522578 </i>
    <i name="ewald"> -11789.24410644 </i>
    <i name="hartreedc">  -2909.44669023 </i>
    <i name="XCdc">   -847.36619910 </i>
    <i name="pawpsdc">  20649.04244153 </i>
    <i name="pawaedc"> -19144.07353037 </i>
    <i name="eentropy">     -0.00634819 </i>
    <i name="bandstr">   -632.14904739 </i>
    <i name="atom">  13006.21773402 </i>
    <i name="e_fr_energy">   -330.35052039 </i>
    <i name="e_wo_entrp">   -330.34417220 </i>
    <i name="e_0_energy">   -330.34840432 </i>
   </energy>
  </scstep>
  <scstep>
   <time name="dav">   26.36   26.40</time>
   <time name="total">   26.95   27.00</time>
   <energy>
    <i name="e_fr_energy">   -330.49466513 </i>
    <i name="e_wo_entrp">   -330.48834655 </i>
    <i name="e_0_energy">   -330.49255894 </i>
   </energy>
  </scstep>
  <scstep>
   <time name="dav">   25.11   25.14</time>
   <time name="total">   25.70   25.74</time>
   <energy>
    <i name="e_fr_energy">   -330.17673690 </i>
    <i name="e_wo_entrp">   -330.17292131 </i>
    <i name="e_0_energy">   -330.17546504 </i>
   </energy>
  </scstep>
  <scstep>
   <time name="dav">   25.81   25.84</time>
   <time name="total">   26.40   26.44</time>
   <energy>
    <i name="e_fr_energy">   -329.89035389 </i>
    <i name="e_wo_entrp">   -329.88607745 </i>
    <i name="e_0_energy">   -329.88892841 </i>
   </energy>
  </scstep>
  <scstep>
   <time name="dav">   24.97   25.00</time>
   <time name="total">   25.56   25.59</time>
   <energy>
    <i name="e_fr_energy">   -329.72793082 </i>
    <i name="e_wo_entrp">   -329.72293736 </i>
    <i name="e_0_energy">   -329.72626634 </i>
   </energy>
  </scstep>
  <scstep>
   <time name="dav">   26.61   26.64</time>
   <time name="total">   27.21   27.25</time>
   <energy>
    <i name="e_fr_energy">   -329.64842995 </i>
    <i name="e_wo_entrp">   -329.64169209 </i>
    <i name="e_0_energy">   -329.64618400 </i>
   </energy>
  </scstep>
  <scstep>
   <time name="dav">   27.50   27.54</time>
   <time name="total">   28.10   28.13</time>
   <energy>
    <i name="e_fr_energy">   -329.65653094 </i>
    <i name="e_wo_entrp">   -329.64997128 </i>
    <i name="e_0_energy">   -329.65434439 </i>
   </energy>
  </scstep>
  <scstep>
   <time name="dav">   25.23   25.26</time>
   <time name="total">   25.83   25.86</time>
   <energy>
    <i name="e_fr_energy">   -329.65607064 </i>
    <i name="e_wo_entrp">   -329.64936729 </i>
    <i name="e_0_energy">   -329.65383619 </i>
   </energy>
  </scstep>
  <scstep>
   <time name="dav">   24.82   24.85</time>
   <time name="total">   25.44   25.48</time>
   <energy>
    <i name="e_fr_energy">   -329.65761939 </i>
    <i name="e_wo_entrp">   -329.65087837 </i>
    <i name="e_0_energy">   -329.65537239 </i>
   </energy>
  </scstep>
  <scstep>
   <time name="dav">   25.37   25.40</time>
   <time name="total">   25.98   26.01</time>
   <energy>
    <i name="e_fr_energy">   -329.66016826 </i>
    <i name="e_wo_entrp">   -329.65382510 </i>
    <i name="e_0_energy">   -329.65805387 </i>
   </energy>
  </scstep>
  <scstep>
   <time name="dav">   25.78   25.81</time>
   <time name="total">   26.38   26.42</time>
   <energy>
    <i name="e_fr_energy">   -329.66057544 </i>
    <i name="e_wo_entrp">   -329.65380561 </i>
    <i name="e_0_energy">   -329.65831883 </i>
   </energy>
  </scstep>
  <scstep>
   <time name="dav">   23.89   23.93</time>
   <time name="total">   24.50   24.54</time>
   <energy>
    <i name="e_fr_energy">   -329.66056415 </i>
    <i name="e_wo_entrp">   -329.65387355 </i>
    <i name="e_0_energy">   -329.65833395 </i>
   </energy>
  </scstep>
  <scstep>
   <time name="dav">   24.77   24.80</time>
   <time name="total">   25.38   25.41</time>
   <energy>
    <i name="e_fr_energy">   -329.66064065 </i>
    <i name="e_wo_entrp">   -329.65397694 </i>
    <i name="e_0_energy">   -329.65841941 </i>
   </energy>
  </scstep>
  <scstep>
   <time name="dav">   19.68   19.71</time>
   <time name="total">   19.71   19.74</time>
   <energy>
    <i name="alphaZ">   1336.67522578 </i>
    <i name="ewald"> -11789.24410644 </i>
    <i name="hartreedc">  -2847.15630413 </i>
    <i name="XCdc">   -849.19740402 </i>
    <i name="pawpsdc">  21750.42214478 </i>
    <i name="pawaedc"> -20246.05985437 </i>
    <i name="eentropy">     -0.00666331 </i>
    <i name="bandstr">   -691.31144356 </i>
    <i name="atom">  13006.21773402 </i>
    <i name="e_fr_energy">   -329.66067126 </i>
    <i name="e_wo_entrp">   -329.65400795 </i>
    <i name="e_0_energy">   -329.65845016 </i>
   </energy>
  </scstep>
  <structure>
   <crystal>
    <varray name="basis" >
     <v>      -3.14833387      -3.14867924      -3.16445053 </v>
     <v>       1.56363473       1.56883757      -7.89509207 </v>
     <v>       7.88516742      -7.89289502      -1.57536109 </v>
    </varray>
    <i name="volume">    470.43244316 </i>
    <varray name="rec_basis" >
     <v>      -0.13771716      -0.12709760      -0.05253071 </v>
     <v>       0.04254887       0.06358402      -0.10559929 </v>
     <v>       0.06339618      -0.06335539      -0.00003367 </v>
    </varray>
   </crystal>
   <varray name="positions" >
    <v>       0.96709268       0.93331184       0.39759052 </v>
    <v>       0.63325656       0.26520780       0.40200046 </v>
    <v>       0.49953393       0.00230891      -0.00106743 </v>
    <v>      -0.00108480       0.00084337       0.00062892 </v>
    <v>       0.09609732       0.20404742       0.79936832 </v>
    <v>       0.03502610       0.06796748       0.59854051 </v>
    <v>       0.90004393       0.79889970       0.20256272 </v>
    <v>       0.80293278       0.59642200       0.39954057 </v>
    <v>       0.73418345       0.46692717       0.19888340 </v>
    <v>       0.66437664       0.33762363      -0.00081967 </v>
    <v>       0.36594699       0.72966463       0.60035118 </v>
    <v>       0.13033743       0.27076540       0.39880533 </v>
    <v>       0.83336796       0.66446574       0.00182450 </v>
    <v>       0.93284098       0.86908943       0.79991666 </v>
    <v>       0.56618536       0.13369993       0.19896989 </v>
    <v>       0.40458672       0.79586004       0.19853789 </v>
    <v>       0.43538019       0.86317337       0.79667305 </v>
    <v>       0.30021099       0.60127578       0.40237110 </v>
    <v>       0.86512773       0.73275794       0.59911179 </v>
    <v>       0.46389520       0.93257809       0.40334558 </v>
    <v>       0.16952293       0.33346288       0.00054175 </v>
    <v>       0.26902547       0.53443434       0.79878771 </v>
    <v>       0.20149262       0.39413000       0.59890848 </v>
    <v>       0.06504942       0.13741920       0.20331779 </v>
    <v>       0.76776700       0.53033599       0.79920473 </v>
    <v>       0.69963283       0.40578389       0.60230010 </v>
    <v>       0.59987074       0.20182889       0.79884914 </v>
    <v>       0.33427224       0.66090553       0.00131104 </v>
    <v>       0.23069527       0.46814292       0.19964399 </v>
   </varray>
  </structure>
  <varray name="forces" >
   <v>       0.00025347       0.19656848       0.03972272 </v>
   <v>       0.29325351      -0.24314373       0.23949943 </v>
   <v>      -0.11449857       0.19637096      -0.02666569 </v>
   <v>       0.11635427      -0.06477811      -0.13610211 </v>
   <v>      -0.04241427       0.07576735      -0.13046105 </v>
   <v>      -0.22770389       0.14473645      -0.15329189 </v>
   <v>       0.13164940      -0.15761467      -0.02914054 </v>
   <v>      -0.05143450      -0.11053684       0.04926441 </v>
   <v>      -0.03535375      -0.08509589       0.13244234 </v>
   <v>       0.03469608       0.12218206      -0.15892322 </v>
   <v>       0.00141548      -0.05722962       0.25275862 </v>
   <v>       0.09811821       0.11672492      -0.15319080 </v>
   <v>       0.02693492       0.00480373      -0.02984450 </v>
   <v>      -0.00045581       0.17523816      -0.07629495 </v>
   <v>       0.05247859       0.03277885       0.07560815 </v>
   <v>      -0.08354188      -0.13351352       0.02005526 </v>
   <v>      -0.45644711       0.29386205       0.08908931 </v>
   <v>       0.15284688      -0.30463558      -0.01268736 </v>
   <v>       0.00812172       0.28520851       0.03412268 </v>
   <v>       0.46129090      -0.39695468      -0.01390908 </v>
   <v>      -0.10458836      -0.17285854      -0.09570133 </v>
   <v>      -0.16656349       0.11327059      -0.04382943 </v>
   <v>      -0.43322925      -0.23588056       0.61843815 </v>
   <v>       0.45101851      -0.11557309      -0.42969442 </v>
   <v>      -0.15656309      -0.07250130      -0.05184600 </v>
   <v>       0.18817502       0.03824865      -0.29951195 </v>
   <v>      -0.11473805       0.37276444      -0.03831029 </v>
   <v>      -0.10843011       0.01118210       0.33422432 </v>
   <v>       0.07935515      -0.02939120      -0.00582079 </v>
  </varray>
  <varray name="stress" >
   <v>      52.31460636      -1.35455676       0.76582644 </v>
   <v>      -1.35455676      52.27641017       1.02699051 </v>
   <v>       0.76582643       1.02699048      54.34852404 </v>
  </varray>
  <energy>
   <i name="e_fr_energy">   -329.66067126 </i>
   <i name="e_wo_entrp">   -329.65845016 </i>
   <i name="e_0_energy">     -0.00666331 </i>
  </energy>
  <time name="totalsc">  370.88  371.42</time>
 </calculation>
 <calculation>
  <scstep>
   <time name="dav">   18.79   18.81</time>
   <time name="total">   19.39   19.42</time>
   <energy>
    <i name="alphaZ">   1325.75082165 </i>
    <i name="ewald"> -11750.58010636 </i>
    <i name="hartreedc">  -2845.78949334 </i>
    <i name="XCdc">   -850.21618251 </i>
    <i name="pawpsdc">  21750.01367706 </i>
    <i name="pawaedc"> -20245.59270431 </i>
    <i name="eentropy">     -0.00797322 </i>
    <i name="bandstr">   -719.52676151 </i>
    <i name="atom">  13006.21773402 </i>
    <i name="e_fr_energy">   -329.73098851 </i>
    <i name="e_wo_entrp">   -329.72301529 </i>
    <i name="e_0_energy">   -329.72833077 </i>
   </energy>
  </scstep>
  <scstep>
   <time name="dav">   26.43   26.46</time>
   <time name="total">   27.03   27.06</time>
   <energy>
    <i name="e_fr_energy">   -329.73709552 </i>
    <i name="e_wo_entrp">   -329.72967763 </i>
    <i name="e_0_energy">   -329.73462289 </i>
   </energy>
  </scstep>
  <scstep>
   <time name="dav">   25.53   25.56</time>
   <time name="total">   26.14   26.18</time>
   <energy>
    <i name="e_fr_energy">   -329.73366484 </i>
    <i name="e_wo_entrp">   -329.72617198 </i>
    <i name="e_0_energy">   -329.73116722 </i>
   </energy>
  </scstep>
  <scstep>
   <time name="dav">   26.48   26.51</time>
   <time name="total">   27.08   27.11</time>
   <energy>
    <i name="e_fr_energy">   -329.70722021 </i>
    <i name="e_wo_entrp">   -329.70005796 </i>
    <i name="e_0_energy">   -329.70483279 </i>
   </energy>
  </scstep>
  <scstep>
   <time name="dav">   25.15   25.19</time>
   <time name="total">   25.76   25.79</time>
   <energy>
    <i name="e_fr_energy">   -329.69734841 </i>
    <i name="e_wo_entrp">   -329.68968468 </i>
    <i name="e_0_energy">   -329.69479383 </i>
   </energy>
  </scstep>
  <scstep>
   <time name="dav">   26.21   26.25</time>
   <time name="total">   26.84   26.89</time>
   <energy>
    <i name="e_fr_energy">   -329.69375977 </i>
    <i name="e_wo_entrp">   -329.68634855 </i>
    <i name="e_0_energy">   -329.69128936 </i>
   </energy>
  </scstep>
  <scstep>
   <time name="dav">   25.79   25.82</time>
   <time name="total">   26.39   26.43</time>
   <energy>
    <i name="e_fr_energy">   -329.69407011 </i>
    <i name="e_wo_entrp">   -329.68648581 </i>
    <i name="e_0_energy">   -329.69154201 </i>
   </energy>
  </scstep>
  <scstep>
   <time name="dav">   22.86   22.90</time>
   <time name="total">   23.47   23.51</time>
   <energy>
    <i name="e_fr_energy">   -329.69399169 </i>
    <i name="e_wo_entrp">   -329.68649565 </i>
    <i name="e_0_energy">   -329.69149301 </i>
   </energy>
  </scstep>
  <scstep>
   <time name="dav">   22.43   22.46</time>
   <time name="total">   23.04   23.08</time>
   <energy>
    <i name="e_fr_energy">   -329.69407884 </i>
    <i name="e_wo_entrp">   -329.68662850 </i>
    <i name="e_0_energy">   -329.69159539 </i>
   </energy>
  </scstep>
  <scstep>
   <time name="dav">   22.06   22.09</time>
   <time name="total">   22.67   22.70</time>
   <energy>
    <i name="e_fr_energy">   -329.69421428 </i>
    <i name="e_wo_entrp">   -329.68662409 </i>
    <i name="e_0_energy">   -329.69168422 </i>
   </energy>
  </scstep>
  <scstep>
   <time name="dav">   20.96   20.99</time>
   <time name="total">   20.99   21.02</time>
   <energy>
    <i name="alphaZ">   1325.75082165 </i>
    <i name="ewald"> -11750.58010636 </i>
    <i name="hartreedc">  -2860.56332753 </i>
    <i name="XCdc">   -849.77817678 </i>
    <i name="pawpsdc">  21471.93871780 </i>
    <i name="pawaedc"> -19967.07701201 </i>
    <i name="eentropy">     -0.00750787 </i>
    <i name="bandstr">   -705.59533135 </i>
    <i name="atom">  13006.21773402 </i>
    <i name="e_fr_energy">   -329.69418843 </i>
    <i name="e_wo_entrp">   -329.68668056 </i>
    <i name="e_0_energy">   -329.69168580 </i>
   </energy>
  </scstep>
  <structure>
   <crystal>
    <varray name="basis" >
     <v>      -3.15821139      -3.15847489      -3.17050738 </v>
     <v>       1.57107029       1.57503973      -7.91403533 </v>
     <v>       7.90646345      -7.91235912      -1.58001676 </v>
    </varray>
    <i name="volume">    474.30888362 </i>
    <varray name="rec_basis" >
     <v>      -0.13726768      -0.12668899      -0.05246342 </v>
     <v>       0.04236849       0.06337121      -0.10533488 </v>
     <v>       0.06322875      -0.06319782      -0.00002556 </v>
    </varray>
   </crystal>
   <varray name="positions" >
    <v>       0.96698991       0.93331755       0.39816795 </v>
    <v>       0.63327422       0.26555725       0.40152117 </v>
    <v>       0.49964744       0.00175527      -0.00081181 </v>
    <v>      -0.00082364       0.00064062       0.00047813 </v>
    <v>       0.09703708       0.20307547       0.79951936 </v>
    <v>       0.03462060       0.06765649       0.59889018 </v>
    <v>       0.90003304       0.79916313       0.20194866 </v>
    <v>       0.80222593       0.59728117       0.39965097 </v>
    <v>       0.73397941       0.46686523       0.19915097 </v>
    <v>       0.66492954       0.33659413      -0.00062359 </v>
    <v>       0.36611678       0.73054394       0.60026730 </v>
    <v>       0.13105950       0.26978161       0.39909129 </v>
    <v>       0.83335824       0.66499319       0.00138744 </v>
    <v>       0.93296110       0.86850833       0.79993644 </v>
    <v>       0.56630094       0.13361200       0.19921672 </v>
    <v>       0.40348227       0.79685478       0.19888864 </v>
    <v>       0.43488540       0.86401234       0.79747063 </v>
    <v>       0.30016191       0.60096959       0.40180278 </v>
    <v>       0.86549639       0.73289543       0.59932469 </v>
    <v>       0.46456041       0.93275752       0.40254387 </v>
    <v>       0.16883769       0.33343288       0.00041193 </v>
    <v>       0.26846003       0.53417149       0.79907816 </v>
    <v>       0.20112938       0.39553825       0.59917053 </v>
    <v>       0.06544159       0.13643833       0.20252236 </v>
    <v>       0.76750032       0.53105525       0.79939556 </v>
    <v>       0.69972617       0.40439655       0.60174843 </v>
    <v>       0.59990301       0.20139050       0.79912480 </v>
    <v>       0.33404249       0.66228708       0.00099731 </v>
    <v>       0.23132950       0.46778794       0.19972917 </v>
   </varray>
  </structure>
  <varray name="forces" >
   <v>      -0.11028527       0.24781171       0.04611429 </v>
   <v>       0.29534947      -0.28149404       0.22996509 </v>
   <v>      -0.10651452       0.22041218      -0.09928427 </v>
   <v>       0.13818156      -0.04708144      -0.12570701 </v>
   <v>       0.04512038       0.19050890      -0.19413843 </v>
   <v>      -0.25207539       0.15491797      -0.19095902 </v>
   <v>       0.20020133      -0.23789725       0.00191230 </v>
   <v>      -0.13972300      -0.14863020       0.14570648 </v>
   <v>      -0.08810017      -0.02758091       0.08313040 </v>
   <v>       0.06914621       0.20685838      -0.26257150 </v>
   <v>      -0.00859422      -0.08640564       0.35628413 </v>
   <v>       0.10913057       0.22479749      -0.22341264 </v>
   <v>       0.07804596      -0.10258480       0.05067258 </v>
   <v>       0.01668164       0.17032324      -0.17137740 </v>
   <v>       0.01105441       0.08688947       0.05871890 </v>
   <v>      -0.24331059      -0.15337252       0.12827154 </v>
   <v>      -0.55321306       0.29630094       0.20956609 </v>
   <v>       0.22622665      -0.33268832      -0.08877486 </v>
   <v>      -0.00769644       0.27406521       0.08772286 </v>
   <v>       0.53230672      -0.39908948       0.04316087 </v>
   <v>      -0.10673290      -0.19755915      -0.12882564 </v>
   <v>      -0.20591704       0.10508232      -0.11570810 </v>
   <v>      -0.44086760      -0.20254783       0.69150708 </v>
   <v>       0.54582546      -0.16530859      -0.49401502 </v>
   <v>      -0.20296667      -0.05945928       0.09481582 </v>
   <v>       0.30383235      -0.01662593      -0.49183006 </v>
   <v>      -0.11553527       0.34163201      -0.09825798 </v>
   <v>      -0.09243812      -0.11706822       0.47524349 </v>
   <v>       0.10286756       0.05579378      -0.01792999 </v>
  </varray>
  <varray name="stress" >
   <v>      33.31905376      -1.94425387       1.17677090 </v>
   <v>      -1.94425394      33.65627197       1.19863738 </v>
   <v>       1.17677094       1.19863744      36.35635140 </v>
  </varray>
  <energy>
   <i name="e_fr_energy">   -329.69418843 </i>
   <i name="e_wo_entrp">   -329.69168580 </i>
   <i name="e_0_energy">     -0.00750787 </i>
  </energy>
  <time name="totalsc">  286.58  287.00</time>
 </calculation>
 <calculation>
  <scstep>
   <time name="dav">   18.14   18.17</time>
   <time name="total">   18.75   18.78</time>
   <energy>
    <i name="alphaZ">   1309.85719794 </i>
    <i name="ewald"> -11724.48557576 </i>
    <i name="hartreedc">  -2828.37872995 </i>
    <i name="XCdc">   -851.39939111 </i>
    <i name="pawpsdc">  21471.65295590 </i>
    <i name="pawaedc"> -19966.89322481 </i>
    <i name="eentropy">     -0.00536197 </i>
    <i name="bandstr">   -746.44975680 </i>
    <i name="atom">  13006.21773402 </i>
    <i name="e_fr_energy">   -329.88415254 </i>
    <i name="e_wo_entrp">   -329.87879057 </i>
    <i name="e_0_energy">   -329.88236522 </i>
   </energy>
  </scstep>
  <scstep>
   <time name="dav">   23.98   24.03</time>
   <time name="total">   24.59   24.63</time>
   <energy>
    <i name="e_fr_energy">   -330.04569590 </i>
    <i name="e_wo_entrp">   -330.03781931 </i>
    <i name="e_0_energy">   -330.04307037 </i>
   </energy>
  </scstep>
  <scstep>
   <time name="dav">   25.28   25.32</time>
   <time name="total">   25.90   25.95</time>
   <energy>
    <i name="e_fr_energy">   -330.04809907 </i>
    <i name="e_wo_entrp">   -330.04324872 </i>
    <i name="e_0_energy">   -330.04648228 </i>
   </energy>
  </scstep>
  <scstep>
   <time name="dav">   24.68   24.72</time>
   <time name="total">   25.29   25.33</time>
   <energy>
    <i name="e_fr_energy">   -329.97948031 </i>
    <i name="e_wo_entrp">   -329.97295693 </i>
    <i name="e_0_energy">   -329.97730585 </i>
   </energy>
  </scstep>
  <scstep>
   <time name="dav">   25.12   25.16</time>
   <time name="total">   25.73   25.76</time>
   <energy>
    <i name="e_fr_energy">   -329.96515539 </i>
    <i name="e_wo_entrp">   -329.95843249 </i>
    <i name="e_0_energy">   -329.96291442 </i>
   </energy>
  </scstep>
  <scstep>
   <time name="dav">   25.29   25.32</time>
   <time name="total">   25.90   25.95</time>
   <energy>
    <i name="e_fr_energy">   -329.95819541 </i>
    <i name="e_wo_entrp">   -329.95113800 </i>
    <i name="e_0_energy">   -329.95584294 </i>
   </energy>
  </scstep>
  <scstep>
   <time name="dav">   27.66   27.70</time>
   <time name="total">   28.26   28.30</time>
   <energy>
    <i name="e_fr_energy">   -329.95608767 </i>
    <i name="e_wo_entrp">   -329.94916576 </i>
    <i name="e_0_energy">   -329.95378037 </i>
   </energy>
  </scstep>
  <scstep>
   <time name="dav">   25.45   25.48</time>
   <time name="total">   26.04   26.08</time>
   <energy>
    <i name="e_fr_energy">   -329.95555362 </i>
    <i name="e_wo_entrp">   -329.94886542 </i>
    <i name="e_0_energy">   -329.95332422 </i>
   </energy>
  </scstep>
  <scstep>
   <time name="dav">   23.41   23.44</time>
   <time name="total">   24.03   24.07</time>
   <energy>
    <i name="e_fr_energy">   -329.95532696 </i>
    <i name="e_wo_entrp">   -329.94849174 </i>
    <i name="e_0_energy">   -329.95304855 </i>
   </energy>
  </scstep>
  <scstep>
   <time name="dav">   22.24   22.28</time>
   <time name="total">   22.84   22.88</time>
   <energy>
    <i name="e_fr_energy">   -329.95553230 </i>
    <i name="e_wo_entrp">   -329.94874238 </i>
    <i name="e_0_energy">   -329.95326899 </i>
   </energy>
  </scstep>
  <scstep>
   <time name="dav">   22.88   22.92</time>
   <time name="total">   23.48   23.52</time>
   <energy>
    <i name="e_fr_energy">   -329.95572559 </i>
    <i name="e_wo_entrp">   -329.94901616 </i>
    <i name="e_0_energy">   -329.95348911 </i>
   </energy>
  </scstep>
  <scstep>
   <time name="dav">   23.21   23.24</time>
   <time name="total">   23.81   23.86</time>
   <energy>
    <i name="e_fr_energy">   -329.95557437 </i>
    <i name="e_wo_entrp">   -329.94878060 </i>
    <i name="e_0_energy">   -329.95330978 </i>
   </energy>
  </scstep>
  <scstep>
   <time name="dav">   13.89   13.92</time>
   <time name="total">   13.92   13.95</time>
   <energy>
    <i name="alphaZ">   1309.85719794 </i>
    <i name="ewald"> -11724.48557576 </i>
    <i name="hartreedc">  -2848.49365326 </i>
    <i name="XCdc">   -850.74847513 </i>
    <i name="pawpsdc">  21065.13039385 </i>
    <i name="pawaedc"> -19560.71610256 </i>
    <i name="eentropy">     -0.00678957 </i>
    <i name="bandstr">   -726.71027660 </i>
    <i name="atom">  13006.21773402 </i>
    <i name="e_fr_energy">   -329.95554707 </i>
    <i name="e_wo_entrp">   -329.94875749 </i>
    <i name="e_0_energy">   -329.95328387 </i>
   </energy>
  </scstep>
  <structure>
   <crystal>
    <varray name="basis" >
     <v>      -3.16661026      -3.16736903      -3.19263358 </v>
     <v>       1.56675272       1.57346102      -7.95481162 </v>
     <v>       7.94027350      -7.95190249      -1.58658057 </v>
    </varray>
    <i name="volume">    480.06408115 </i>
    <varray name="rec_basis" >
     <v>      -0.13696569      -0.12639479      -0.05197718 </v>
     <v>       0.04241564       0.06327169      -0.10484090 </v>
     <v>       0.06294849      -0.06289130      -0.00004177 </v>
    </varray>
   </crystal>
   <varray name="positions" >
    <v>       0.96668711       0.93347821       0.39630172 </v>
    <v>       0.63276251       0.26398475       0.40356416 </v>
    <v>       0.49917965       0.00349442      -0.00193549 </v>
    <v>      -0.00156006       0.00152378       0.00112768 </v>
    <v>       0.09446874       0.20611325       0.79893988 </v>
    <v>       0.03618553       0.06885933       0.59742413 </v>
    <v>       0.90012761       0.79841031       0.20403455 </v>
    <v>       0.80458264       0.59458890       0.39943078 </v>
    <v>       0.73472892       0.46659987       0.19847231 </v>
    <v>       0.66313772       0.34001409      -0.00128566 </v>
    <v>       0.36556917       0.72745335       0.60058381 </v>
    <v>       0.12863195       0.27306766       0.39827616 </v>
    <v>       0.83336779       0.66362794       0.00264032 </v>
    <v>       0.93228976       0.87057548       0.79962283 </v>
    <v>       0.56561794       0.13379392       0.19855541 </v>
    <v>       0.40712752       0.79379361       0.19798036 </v>
    <v>       0.43670623       0.86147370       0.79426569 </v>
    <v>       0.30070780       0.60156347       0.40400437 </v>
    <v>       0.86363916       0.73281957       0.59837212 </v>
    <v>       0.46244744       0.93216981       0.40590225 </v>
    <v>       0.17159915       0.33340046       0.00084971 </v>
    <v>       0.27025551       0.53501646       0.79790819 </v>
    <v>       0.20329723       0.38961383       0.59818910 </v>
    <v>       0.06382176       0.14034092       0.20547844 </v>
    <v>       0.76891874       0.52889437       0.79873428 </v>
    <v>       0.69914388       0.40913807       0.60349340 </v>
    <v>       0.59921236       0.20308457       0.79772827 </v>
    <v>       0.33460319       0.65762014       0.00171084 </v>
    <v>       0.22940970       0.46881909       0.19963038 </v>
   </varray>
  </structure>
  <varray name="forces" >
   <v>       0.05139543       0.06718480       0.05014442 </v>
   <v>       0.18544770      -0.05032811       0.08967935 </v>
   <v>      -0.20541595       0.10387675       0.11243419 </v>
   <v>       0.06198334      -0.06685393      -0.05668773 </v>
   <v>      -0.07915227      -0.11108366       0.06620591 </v>
   <v>      -0.11314787       0.09873244      -0.07967777 </v>
   <v>      -0.05117680       0.00363383      -0.04002050 </v>
   <v>       0.06640072      -0.02332914      -0.07024024 </v>
   <v>       0.12967828      -0.11473257       0.14021426 </v>
   <v>      -0.04940176      -0.00295776       0.03961498 </v>
   <v>       0.03145272       0.00592946       0.09121029 </v>
   <v>       0.07536009       0.02282066      -0.02023474 </v>
   <v>      -0.03323439       0.18473935      -0.16851465 </v>
   <v>       0.00167498       0.08128132      -0.04983580 </v>
   <v>       0.10168943      -0.03895854       0.03948791 </v>
   <v>       0.11941883      -0.07986803      -0.06233827 </v>
   <v>      -0.15213904       0.17363138       0.00910214 </v>
   <v>      -0.05986036      -0.16677791       0.09162618 </v>
   <v>       0.00505030       0.17482674       0.05914844 </v>
   <v>       0.22625046      -0.26436893      -0.02897962 </v>
   <v>      -0.05300877      -0.10383065      -0.06371972 </v>
   <v>      -0.08080412       0.07144264       0.06030787 </v>
   <v>      -0.31865903      -0.19684895       0.36625118 </v>
   <v>       0.25865174      -0.02461402      -0.24354030 </v>
   <v>       0.00819229      -0.05724647      -0.27823971 </v>
   <v>      -0.02262519       0.07934679       0.04455657 </v>
   <v>      -0.06475389       0.22200959      -0.02503970 </v>
   <v>      -0.08490601       0.18932773      -0.02249025 </v>
   <v>       0.04563915      -0.17698479      -0.05042469 </v>
  </varray>
  <varray name="stress" >
   <v>       9.52516991      -0.24994533       0.41223102 </v>
   <v>      -0.24994537       7.70750441       1.36380228 </v>
   <v>       0.41223092       1.36380230       8.95196407 </v>
  </varray>
  <energy>
   <i name="e_fr_energy">   -329.95554707 </i>
   <i name="e_wo_entrp">   -329.95328387 </i>
   <i name="e_0_energy">     -0.00678957 </i>
  </energy>
  <time name="totalsc">  326.85  327.40</time>
 </calculation>
 <calculation>
  <scstep>
   <time name="dav">   18.22   18.24</time>
   <time name="total">   18.82   18.85</time>
   <energy>
    <i name="alphaZ">   1305.21549763 </i>
    <i name="ewald"> -11716.04293788 </i>
    <i name="hartreedc">  -2839.56363312 </i>
    <i name="XCdc">   -851.22743285 </i>
    <i name="pawpsdc">  21065.11147817 </i>
    <i name="pawaedc"> -19560.72508156 </i>
    <i name="eentropy">     -0.00644069 </i>
    <i name="bandstr">   -738.94298814 </i>
    <i name="atom">  13006.21773402 </i>
    <i name="e_fr_energy">   -329.96380442 </i>
    <i name="e_wo_entrp">   -329.95736373 </i>
    <i name="e_0_energy">   -329.96165752 </i>
   </energy>
  </scstep>
  <scstep>
   <time name="dav">   24.09   24.12</time>
   <time name="total">   24.71   24.75</time>
   <energy>
    <i name="e_fr_energy">   -329.97756260 </i>
    <i name="e_wo_entrp">   -329.97038410 </i>
    <i name="e_0_energy">   -329.97516977 </i>
   </energy>
  </scstep>
  <scstep>
   <time name="dav">   24.33   24.37</time>
   <time name="total">   24.93   24.97</time>
   <energy>
    <i name="e_fr_energy">   -329.97659962 </i>
    <i name="e_wo_entrp">   -329.97004921 </i>
    <i name="e_0_energy">   -329.97441615 </i>
   </energy>
  </scstep>
  <scstep>
   <time name="dav">   24.19   24.22</time>
   <time name="total">   24.79   24.82</time>
   <energy>
    <i name="e_fr_energy">   -329.97155666 </i>
    <i name="e_wo_entrp">   -329.96472319 </i>
    <i name="e_0_energy">   -329.96927883 </i>
   </energy>
  </scstep>
  <scstep>
   <time name="dav">   25.02   25.05</time>
   <time name="total">   25.62   25.66</time>
   <energy>
    <i name="e_fr_energy">   -329.97035065 </i>
    <i name="e_wo_entrp">   -329.96351299 </i>
    <i name="e_0_energy">   -329.96807143 </i>
   </energy>
  </scstep>
  <scstep>
   <time name="dav">   25.66   25.70</time>
   <time name="total">   26.27   26.30</time>
   <energy>
    <i name="e_fr_energy">   -329.96964564 </i>
    <i name="e_wo_entrp">   -329.96273066 </i>
    <i name="e_0_energy">   -329.96734065 </i>
   </energy>
  </scstep>
  <scstep>
   <time name="dav">   24.77   24.80</time>
   <time name="total">   25.37   25.41</time>
   <energy>
    <i name="e_fr_energy">   -329.96949984 </i>
    <i name="e_wo_entrp">   -329.96261700 </i>
    <i name="e_0_energy">   -329.96720556 </i>
   </energy>
  </scstep>
  <scstep>
   <time name="dav">   22.17   22.20</time>
   <time name="total">   22.78   22.82</time>
   <energy>
    <i name="e_fr_energy">   -329.96945791 </i>
    <i name="e_wo_entrp">   -329.96263508 </i>
    <i name="e_0_energy">   -329.96718363 </i>
   </energy>
  </scstep>
  <scstep>
   <time name="dav">   16.95   16.98</time>
   <time name="total">   16.98   17.01</time>
   <energy>
    <i name="alphaZ">   1305.21549763 </i>
    <i name="ewald"> -11716.04293788 </i>
    <i name="hartreedc">  -2845.82316331 </i>
    <i name="XCdc">   -851.02736978 </i>
    <i name="pawpsdc">  20957.70191668 </i>
    <i name="pawaedc"> -19453.15694882 </i>
    <i name="eentropy">     -0.00685979 </i>
    <i name="bandstr">   -733.04730393 </i>
    <i name="atom">  13006.21773402 </i>
    <i name="e_fr_energy">   -329.96943519 </i>
    <i name="e_wo_entrp">   -329.96257539 </i>
    <i name="e_0_energy">   -329.96714859 </i>
   </energy>
  </scstep>
  <structure>
   <crystal>
    <varray name="basis" >
     <v>      -3.16909001      -3.16999501      -3.19916630 </v>
     <v>       1.56547796       1.57299491      -7.96685077 </v>
     <v>       7.95025587      -7.96357761      -1.58851852 </v>
    </varray>
    <i name="volume">    481.77131923 </i>
    <varray name="rec_basis" >
     <v>      -0.13687690      -0.12630829      -0.05183479 </v>
     <v>       0.04242929       0.06324235      -0.10469607 </v>
     <v>       0.06286624      -0.06280135      -0.00004651 </v>
    </varray>
   </crystal>
   <varray name="positions" >
    <v>       0.96659827       0.93352537       0.39575327 </v>
    <v>       0.63261287       0.26352276       0.40416450 </v>
    <v>       0.49904075       0.00400592      -0.00226564 </v>
    <v>      -0.00177764       0.00178387       0.00131863 </v>
    <v>       0.09371055       0.20700757       0.79876976 </v>
    <v>       0.03664527       0.06921224       0.59699333 </v>
    <v>       0.90015564       0.79818913       0.20464752 </v>
    <v>       0.80527843       0.59379618       0.39936592 </v>
    <v>       0.73494983       0.46652145       0.19827284 </v>
    <v>       0.66260770       0.34102046      -0.00148005 </v>
    <v>       0.36541064       0.72654476       0.60067668 </v>
    <v>       0.12791501       0.27403490       0.39803679 </v>
    <v>       0.83337151       0.66322660       0.00300846 </v>
    <v>       0.93209052       0.87118361       0.79953078 </v>
    <v>       0.56541696       0.13384762       0.19836108 </v>
    <v>       0.40820291       0.79289180       0.19771325 </v>
    <v>       0.43724484       0.86072605       0.79332365 </v>
    <v>       0.30086745       0.60173813       0.40465142 </v>
    <v>       0.86309296       0.73279793       0.59809219 </v>
    <v>       0.46182553       0.93199823       0.40688922 </v>
    <v>       0.17241162       0.33338984       0.00097834 </v>
    <v>       0.27078333       0.53526407       0.79756438 </v>
    <v>       0.20394039       0.38787062       0.59790036 </v>
    <v>       0.06334118       0.14148956       0.20634740 </v>
    <v>       0.76933809       0.52825826       0.79853982 </v>
    <v>       0.69896811       0.41053284       0.60400646 </v>
    <v>       0.59900798       0.20358287       0.79731794 </v>
    <v>       0.33477203       0.65624758       0.00192029 </v>
    <v>       0.22884395       0.46912310       0.19960142 </v>
   </varray>
  </structure>
  <varray name="forces" >
   <v>       0.10660071       0.00892560       0.05315492 </v>
   <v>       0.14922116       0.01262316       0.04690936 </v>
   <v>      -0.23234642       0.06807880       0.17119108 </v>
   <v>       0.04338378      -0.07112729      -0.03978871 </v>
   <v>      -0.11901358      -0.20479084       0.14015093 </v>
   <v>      -0.07534342       0.08313409      -0.04331504 </v>
   <v>      -0.12146563       0.07150920      -0.04916835 </v>
   <v>       0.12749579       0.01753975      -0.13725530 </v>
   <v>       0.19193700      -0.13938587       0.14949137 </v>
   <v>      -0.08523250      -0.06528049       0.13002782 </v>
   <v>       0.04596876       0.03754706       0.00398945 </v>
   <v>       0.06240653      -0.04051736       0.04131639 </v>
   <v>      -0.05775247       0.25261596      -0.22046296 </v>
   <v>       0.00377163       0.06715385      -0.01955700 </v>
   <v>       0.13067757      -0.07580364       0.03858819 </v>
   <v>       0.20189483      -0.06479892      -0.09692225 </v>
   <v>      -0.05789117       0.14203823      -0.05319302 </v>
   <v>      -0.12877316      -0.11948131       0.14435775 </v>
   <v>       0.01604259       0.14480666       0.04785212 </v>
   <v>       0.14304476      -0.21979235      -0.04583175 </v>
   <v>      -0.04504881      -0.06879939      -0.05089277 </v>
   <v>      -0.04850508       0.06264951       0.11713965 </v>
   <v>      -0.28581764      -0.19931582       0.26429633 </v>
   <v>       0.18174633       0.02095295      -0.17987675 </v>
   <v>       0.07254766      -0.05655713      -0.39155657 </v>
   <v>      -0.11916688       0.10668156       0.20474852 </v>
   <v>      -0.04780303       0.19363312      -0.00674829 </v>
   <v>      -0.08106977       0.27720177      -0.16008985 </v>
   <v>       0.02849045      -0.24144085      -0.05855525 </v>
  </varray>
  <varray name="stress" >
   <v>       3.64480131       0.22301740       0.11934624 </v>
   <v>       0.22301734       1.27833103       1.47689500 </v>
   <v>       0.11934630       1.47689503       2.06622945 </v>
  </varray>
  <energy>
   <i name="e_fr_energy">   -329.96943519 </i>
   <i name="e_wo_entrp">   -329.96714859 </i>
   <i name="e_0_energy">     -0.00685979 </i>
  </energy>
  <time name="totalsc">  228.47  228.79</time>
 </calculation>
 <calculation>
  <scstep>
   <time name="dav">   18.59   18.62</time>
   <time name="total">   19.20   19.25</time>
   <energy>
    <i name="alphaZ">   1301.98127328 </i>
    <i name="ewald"> -11705.23529420 </i>
    <i name="hartreedc">  -2844.61529512 </i>
    <i name="XCdc">   -851.34900018 </i>
    <i name="pawpsdc">  20956.37139523 </i>
    <i name="pawaedc"> -19451.94264529 </i>
    <i name="eentropy">     -0.00659383 </i>
    <i name="bandstr">   -741.41972518 </i>
    <i name="atom">  13006.21773402 </i>
    <i name="e_fr_energy">   -329.99815125 </i>
    <i name="e_wo_entrp">   -329.99155742 </i>
    <i name="e_0_energy">   -329.99595330 </i>
   </energy>
  </scstep>
  <scstep>
   <time name="dav">   25.31   25.33</time>
   <time name="total">   25.90   25.94</time>
   <energy>
    <i name="e_fr_energy">   -330.01449860 </i>
    <i name="e_wo_entrp">   -330.00773863 </i>
    <i name="e_0_energy">   -330.01224528 </i>
   </energy>
  </scstep>
  <scstep>
   <time name="dav">   24.81   24.84</time>
   <time name="total">   25.42   25.45</time>
   <energy>
    <i name="e_fr_energy">   -330.01046542 </i>
    <i name="e_wo_entrp">   -330.00354330 </i>
    <i name="e_0_energy">   -330.00815805 </i>
   </energy>
  </scstep>
  <scstep>
   <time name="dav">   24.80   24.83</time>
   <time name="total">   25.39   25.42</time>
   <energy>
    <i name="e_fr_energy">   -330.00806594 </i>
    <i name="e_wo_entrp">   -330.00144930 </i>
    <i name="e_0_energy">   -330.00586040 </i>
   </energy>
  </scstep>
  <scstep>
   <time name="dav">   24.81   24.87</time>
   <time name="total">   25.40   25.47</time>
   <energy>
    <i name="e_fr_energy">   -330.00636257 </i>
    <i name="e_wo_entrp">   -329.99956821 </i>
    <i name="e_0_energy">   -330.00409778 </i>
   </energy>
  </scstep>
  <scstep>
   <time name="dav">   25.49   25.55</time>
   <time name="total">   26.08   26.14</time>
   <energy>
    <i name="e_fr_energy">   -330.00598020 </i>
    <i name="e_wo_entrp">   -329.99906955 </i>
    <i name="e_0_energy">   -330.00367665 </i>
   </energy>
  </scstep>
  <scstep>
   <time name="dav">   23.67   23.73</time>
   <time name="total">   24.27   24.32</time>
   <energy>
    <i name="e_fr_energy">   -330.00582823 </i>
    <i name="e_wo_entrp">   -329.99904698 </i>
    <i name="e_0_energy">   -330.00356781 </i>
   </energy>
  </scstep>
  <scstep>
   <time name="dav">   20.48   20.53</time>
   <time name="total">   21.08   21.14</time>
   <energy>
    <i name="e_fr_energy">   -330.00572277 </i>
    <i name="e_wo_entrp">   -329.99892440 </i>
    <i name="e_0_energy">   -330.00345664 </i>
   </energy>
  </scstep>
  <scstep>
   <time name="dav">   14.17   14.20</time>
   <time name="total">   14.20   14.23</time>
   <energy>
    <i name="alphaZ">   1301.98127328 </i>
    <i name="ewald"> -11705.23529420 </i>
    <i name="hartreedc">  -2849.23514168 </i>
    <i name="XCdc">   -851.21308865 </i>
    <i name="pawpsdc">  20863.41119647 </i>
    <i name="pawaedc"> -19358.86231583 </i>
    <i name="eentropy">     -0.00680808 </i>
    <i name="bandstr">   -737.06326941 </i>
    <i name="atom">  13006.21773402 </i>
    <i name="e_fr_energy">   -330.00571407 </i>
    <i name="e_wo_entrp">   -329.99890599 </i>
    <i name="e_0_energy">   -330.00344471 </i>
   </energy>
  </scstep>
  <structure>
   <crystal>
    <varray name="basis" >
     <v>      -3.17320489      -3.17315516      -3.20337008 </v>
     <v>       1.56692298       1.57006289      -7.97227816 </v>
     <v>       7.95949486      -7.96798759      -1.59302879 </v>
    </varray>
    <i name="volume">    482.96807725 </i>
    <varray name="rec_basis" >
     <v>      -0.13670504      -0.12621777      -0.05172626 </v>
     <v>       0.04238269       0.06325928      -0.10464619 </v>
     <v>       0.06279249      -0.06277248      -0.00002079 </v>
    </varray>
   </crystal>
   <varray name="positions" >
    <v>       0.96604304       0.93351568       0.39588325 </v>
    <v>       0.63187500       0.26354486       0.40447527 </v>
    <v>       0.49945180       0.00335926      -0.00285594 </v>
[...]
       <r>    4.6076    1.0000 </r>
       <r>    4.6553    1.0000 </r>
       <r>    4.7071    1.0000 </r>
       <r>    4.7321    1.0000 </r>
       <r>    4.8064    1.0000 </r>
       <r>    4.8408    1.0000 </r>
       <r>    4.9080    1.0000 </r>
       <r>    4.9771    1.0000 </r>
       <r>    5.0316    1.0000 </r>
       <r>    5.0766    1.0000 </r>
       <r>    5.1120    1.0000 </r>
       <r>    5.1905    1.0000 </r>
       <r>    5.2702    1.0000 </r>
       <r>    5.3132    1.0000 </r>
       <r>    5.3643    1.0000 </r>
       <r>    5.4045    1.0000 </r>
       <r>    5.4700    1.0000 </r>
       <r>    5.5384    1.0000 </r>
       <r>    5.6005    1.0000 </r>
       <r>    5.6357    1.0000 </r>
       <r>    5.7035    1.0000 </r>
       <r>    5.7473    1.0000 </r>
       <r>    5.8098    1.0000 </r>
       <r>    5.8638    1.0000 </r>
       <r>    5.9088    1.0000 </r>
       <r>    6.0022    1.0000 </r>
       <r>    6.0198    1.0000 </r>
       <r>    6.0620    1.0000 </r>
       <r>    6.1371    1.0001 </r>
       <r>    6.1875    1.0004 </r>
       <r>    6.2247    1.0010 </r>
       <r>    6.2639    1.0024 </r>
       <r>    6.3211    1.0069 </r>
       <r>    6.3572    1.0121 </r>
       <r>    6.4043    1.0218 </r>
       <r>    6.4662    1.0342 </r>
       <r>    6.5042    1.0339 </r>
       <r>    6.6035    0.9342 </r>
       <r>    6.6650    0.7596 </r>
       <r>    6.7940    0.2442 </r>
       <r>    6.8478    0.0852 </r>
       <r>    6.9157   -0.0160 </r>
       <r>    7.0646   -0.0197 </r>
       <r>    7.1814   -0.0032 </r>
       <r>    7.2741   -0.0004 </r>
       <r>    7.3147   -0.0001 </r>
       <r>    7.3665   -0.0000 </r>
       <r>    7.5933   -0.0000 </r>
       <r>    7.6962   -0.0000 </r>
       <r>    7.8541   -0.0000 </r>
       <r>    7.9748   -0.0000 </r>
       <r>    8.0857   -0.0000 </r>
       <r>    8.1383   -0.0000 </r>
       <r>    8.3423   -0.0000 </r>
       <r>    8.5660   -0.0000 </r>
       <r>    8.6374   -0.0000 </r>
       <r>    8.7261   -0.0000 </r>
       <r>    8.8026   -0.0000 </r>
       <r>    8.8309   -0.0000 </r>
       <r>    8.9769   -0.0000 </r>
       <r>    8.9994   -0.0000 </r>
      </set>
     </set>
    </set>
   </array>
  </eigenvalues>
  <separator name="orbital magnetization" >
   <v name="MAGDIPOLOUT">      0.00000000      0.00000000      0.00000000</v>
  </separator>
  <dos>
   <i name="efermi">      6.73004187 </i>
   <total>
    <array>
     <dimension dim="1">gridpoints</dimension>
     <dimension dim="2">spin</dimension>
     <field>energy</field>
     <field>total</field>
     <field>integrated</field>
     <set>
      <set comment="spin 1">
       <r>   -50.2822     0.0000     0.0000 </r>
       <r>   -50.0745     0.0000     0.0000 </r>
       <r>   -49.8668     0.0000     0.0000 </r>
       <r>   -49.6591     0.0000     0.0000 </r>
       <r>   -49.4513     0.0000     0.0000 </r>
       <r>   -49.2436    -0.0000    -0.0000 </r>
       <r>   -49.0359    -0.0000    -0.0000 </r>
       <r>   -48.8282    -0.0000    -0.0000 </r>
       <r>   -48.6204    -0.0000    -0.0000 </r>
       <r>   -48.4127    -0.0000    -0.0000 </r>
       <r>   -48.2050    -0.0000    -0.0000 </r>
       <r>   -47.9973    -0.0041    -0.0009 </r>
       <r>   -47.7895    -0.2518    -0.0532 </r>
       <r>   -47.5818     0.1341    -0.0253 </r>
       <r>   -47.3741    14.1172     2.9072 </r>
       <r>   -47.1664    21.1930     7.3095 </r>
       <r>   -46.9586    20.8058    11.6313 </r>
       <r>   -46.7509     2.3390    12.1172 </r>
       <r>   -46.5432    -0.5501    12.0029 </r>
       <r>   -46.3355    -0.0140    12.0000 </r>
       <r>   -46.1277    -0.0000    12.0000 </r>
       <r>   -45.9200    -0.0000    12.0000 </r>
       <r>   -45.7123    -0.0000    12.0000 </r>
       <r>   -45.5046     0.0000    12.0000 </r>
       <r>   -45.2968     0.0000    12.0000 </r>
       <r>   -45.0891     0.0000    12.0000 </r>
       <r>   -44.8814     0.0000    12.0000 </r>
       <r>   -44.6737     0.0000    12.0000 </r>
       <r>   -44.4659     0.0000    12.0000 </r>
       <r>   -44.2582     0.0000    12.0000 </r>
       <r>   -44.0505     0.0000    12.0000 </r>
       <r>   -43.8428     0.0000    12.0000 </r>
       <r>   -43.6351     0.0000    12.0000 </r>
       <r>   -43.4273     0.0000    12.0000 </r>
       <r>   -43.2196     0.0000    12.0000 </r>
       <r>   -43.0119     0.0000    12.0000 </r>
       <r>   -42.8042     0.0000    12.0000 </r>
       <r>   -42.5964     0.0000    12.0000 </r>
       <r>   -42.3887     0.0000    12.0000 </r>
       <r>   -42.1810     0.0000    12.0000 </r>
       <r>   -41.9733     0.0000    12.0000 </r>
       <r>   -41.7655     0.0000    12.0000 </r>
       <r>   -41.5578     0.0000    12.0000 </r>
       <r>   -41.3501     0.0000    12.0000 </r>
       <r>   -41.1424     0.0000    12.0000 </r>
       <r>   -40.9346     0.0000    12.0000 </r>
       <r>   -40.7269     0.0000    12.0000 </r>
       <r>   -40.5192     0.0000    12.0000 </r>
       <r>   -40.3115     0.0000    12.0000 </r>
       <r>   -40.1037     0.0000    12.0000 </r>
       <r>   -39.8960     0.0000    12.0000 </r>
       <r>   -39.6883     0.0000    12.0000 </r>
       <r>   -39.4806     0.0000    12.0000 </r>
       <r>   -39.2728     0.0000    12.0000 </r>
       <r>   -39.0651     0.0000    12.0000 </r>
       <r>   -38.8574     0.0000    12.0000 </r>
       <r>   -38.6497     0.0000    12.0000 </r>
       <r>   -38.4419     0.0000    12.0000 </r>
       <r>   -38.2342     0.0000    12.0000 </r>
       <r>   -38.0265     0.0000    12.0000 </r>
       <r>   -37.8188     0.0000    12.0000 </r>
       <r>   -37.6110     0.0000    12.0000 </r>
       <r>   -37.4033     0.0000    12.0000 </r>
       <r>   -37.1956     0.0000    12.0000 </r>
       <r>   -36.9879     0.0000    12.0000 </r>
       <r>   -36.7801     0.0000    12.0000 </r>
       <r>   -36.5724     0.0000    12.0000 </r>
       <r>   -36.3647     0.0000    12.0000 </r>
       <r>   -36.1570     0.0000    12.0000 </r>
       <r>   -35.9493     0.0000    12.0000 </r>
       <r>   -35.7415     0.0000    12.0000 </r>
       <r>   -35.5338     0.0000    12.0000 </r>
       <r>   -35.3261     0.0000    12.0000 </r>
       <r>   -35.1184     0.0000    12.0000 </r>
       <r>   -34.9106     0.0000    12.0000 </r>
       <r>   -34.7029     0.0000    12.0000 </r>
       <r>   -34.4952     0.0000    12.0000 </r>
       <r>   -34.2875     0.0000    12.0000 </r>
       <r>   -34.0797     0.0000    12.0000 </r>
       <r>   -33.8720     0.0000    12.0000 </r>
       <r>   -33.6643     0.0000    12.0000 </r>
       <r>   -33.4566     0.0000    12.0000 </r>
       <r>   -33.2488     0.0000    12.0000 </r>
       <r>   -33.0411     0.0000    12.0000 </r>
       <r>   -32.8334     0.0000    12.0000 </r>
       <r>   -32.6257     0.0000    12.0000 </r>
       <r>   -32.4179     0.0000    12.0000 </r>
       <r>   -32.2102     0.0000    12.0000 </r>
       <r>   -32.0025     0.0000    12.0000 </r>
       <r>   -31.7948     0.0000    12.0000 </r>
       <r>   -31.5870     0.0000    12.0000 </r>
       <r>   -31.3793     0.0000    12.0000 </r>
       <r>   -31.1716     0.0000    12.0000 </r>
       <r>   -30.9639     0.0000    12.0000 </r>
       <r>   -30.7561     0.0000    12.0000 </r>
       <r>   -30.5484     0.0000    12.0000 </r>
       <r>   -30.3407     0.0000    12.0000 </r>
       <r>   -30.1330     0.0000    12.0000 </r>
       <r>   -29.9252     0.0000    12.0000 </r>
       <r>   -29.7175     0.0000    12.0000 </r>
       <r>   -29.5098     0.0000    12.0000 </r>
       <r>   -29.3021     0.0000    12.0000 </r>
       <r>   -29.0943     0.0000    12.0000 </r>
       <r>   -28.8866     0.0000    12.0000 </r>
       <r>   -28.6789     0.0000    12.0000 </r>
       <r>   -28.4712     0.0000    12.0000 </r>
       <r>   -28.2635     0.0000    12.0000 </r>
       <r>   -28.0557     0.0000    12.0000 </r>
       <r>   -27.8480     0.0000    12.0000 </r>
       <r>   -27.6403     0.0000    12.0000 </r>
       <r>   -27.4326     0.0000    12.0000 </r>
       <r>   -27.2248     0.0000    12.0000 </r>
       <r>   -27.0171     0.0000    12.0000 </r>
       <r>   -26.8094     0.0000    12.0000 </r>
       <r>   -26.6017     0.0000    12.0000 </r>
       <r>   -26.3939     0.0000    12.0000 </r>
       <r>   -26.1862     0.0000    12.0000 </r>
       <r>   -25.9785     0.0000    12.0000 </r>
       <r>   -25.7708    -0.0000    12.0000 </r>
       <r>   -25.5630    -0.0000    12.0000 </r>
       <r>   -25.3553    -0.0000    12.0000 </r>
       <r>   -25.1476    -0.0000    12.0000 </r>
       <r>   -24.9399    -0.0000    12.0000 </r>
       <r>   -24.7321    -0.0000    12.0000 </r>
       <r>   -24.5244    -0.0029    11.9994 </r>
       <r>   -24.3167    -0.1610    11.9660 </r>
       <r>   -24.1090    -0.0396    11.9577 </r>
       <r>   -23.9012     8.5062    13.7247 </r>
       <r>   -23.6935    22.6006    18.4194 </r>
       <r>   -23.4858    40.4768    26.8274 </r>
       <r>   -23.2781    40.7270    35.2874 </r>
       <r>   -23.0703    38.5172    43.2883 </r>
       <r>   -22.8626    18.9872    47.2324 </r>
       <r>   -22.6549     3.7363    48.0086 </r>
       <r>   -22.4472     0.0518    48.0193 </r>
       <r>   -22.2394    -0.0901    48.0006 </r>
       <r>   -22.0317    -0.0028    48.0000 </r>
       <r>   -21.8240    -0.0000    48.0000 </r>
       <r>   -21.6163    -0.0000    48.0000 </r>
       <r>   -21.4085    -0.0000    48.0000 </r>
       <r>   -21.2008     0.0000    48.0000 </r>
       <r>   -20.9931     0.0000    48.0000 </r>
       <r>   -20.7854     0.0000    48.0000 </r>
       <r>   -20.5777     0.0000    48.0000 </r>
       <r>   -20.3699     0.0000    48.0000 </r>
       <r>   -20.1622     0.0000    48.0000 </r>
       <r>   -19.9545     0.0000    48.0000 </r>
       <r>   -19.7468     0.0000    48.0000 </r>
       <r>   -19.5390     0.0000    48.0000 </r>
       <r>   -19.3313     0.0000    48.0000 </r>
       <r>   -19.1236     0.0000    48.0000 </r>
       <r>   -18.9159     0.0000    48.0000 </r>
       <r>   -18.7081     0.0000    48.0000 </r>
       <r>   -18.5004     0.0000    48.0000 </r>
       <r>   -18.2927     0.0000    48.0000 </r>
       <r>   -18.0850     0.0000    48.0000 </r>
       <r>   -17.8772     0.0000    48.0000 </r>
       <r>   -17.6695     0.0000    48.0000 </r>
       <r>   -17.4618     0.0000    48.0000 </r>
       <r>   -17.2541     0.0000    48.0000 </r>
       <r>   -17.0463     0.0000    48.0000 </r>
       <r>   -16.8386     0.0000    48.0000 </r>
       <r>   -16.6309     0.0000    48.0000 </r>
       <r>   -16.4232     0.0000    48.0000 </r>
       <r>   -16.2154     0.0000    48.0000 </r>
       <r>   -16.0077     0.0000    48.0000 </r>
       <r>   -15.8000     0.0000    48.0000 </r>
       <r>   -15.5923     0.0000    48.0000 </r>
       <r>   -15.3845     0.0000    48.0000 </r>
       <r>   -15.1768     0.0000    48.0000 </r>
       <r>   -14.9691     0.0000    48.0000 </r>
       <r>   -14.7614     0.0000    48.0000 </r>
       <r>   -14.5536     0.0000    48.0000 </r>
       <r>   -14.3459     0.0000    48.0000 </r>
       <r>   -14.1382     0.0000    48.0000 </r>
       <r>   -13.9305     0.0000    48.0000 </r>
       <r>   -13.7227     0.0000    48.0000 </r>
       <r>   -13.5150     0.0000    48.0000 </r>
       <r>   -13.3073     0.0000    48.0000 </r>
       <r>   -13.0996     0.0000    48.0000 </r>
       <r>   -12.8919     0.0000    48.0000 </r>
       <r>   -12.6841     0.0000    48.0000 </r>
       <r>   -12.4764     0.0000    48.0000 </r>
       <r>   -12.2687     0.0000    48.0000 </r>
       <r>   -12.0610     0.0000    48.0000 </r>
       <r>   -11.8532     0.0000    48.0000 </r>
       <r>   -11.6455     0.0000    48.0000 </r>
       <r>   -11.4378     0.0000    48.0000 </r>
       <r>   -11.2301     0.0000    48.0000 </r>
       <r>   -11.0223     0.0000    48.0000 </r>
       <r>   -10.8146     0.0000    48.0000 </r>
       <r>   -10.6069     0.0000    48.0000 </r>
       <r>   -10.3992     0.0000    48.0000 </r>
       <r>   -10.1914     0.0000    48.0000 </r>
       <r>    -9.9837     0.0000    48.0000 </r>
       <r>    -9.7760     0.0000    48.0000 </r>
       <r>    -9.5683     0.0000    48.0000 </r>
       <r>    -9.3605     0.0000    48.0000 </r>
       <r>    -9.1528     0.0000    48.0000 </r>
       <r>    -8.9451     0.0000    48.0000 </r>
       <r>    -8.7374     0.0000    48.0000 </r>
       <r>    -8.5296     0.0000    48.0000 </r>
       <r>    -8.3219     0.0000    48.0000 </r>
       <r>    -8.1142     0.0000    48.0000 </r>
       <r>    -7.9065     0.0000    48.0000 </r>
       <r>    -7.6987     0.0000    48.0000 </r>
       <r>    -7.4910     0.0000    48.0000 </r>
       <r>    -7.2833     0.0000    48.0000 </r>
       <r>    -7.0756     0.0000    48.0000 </r>
       <r>    -6.8678     0.0000    48.0000 </r>
       <r>    -6.6601     0.0000    48.0000 </r>
       <r>    -6.4524     0.0000    48.0000 </r>
       <r>    -6.2447     0.0000    48.0000 </r>
       <r>    -6.0369     0.0000    48.0000 </r>
       <r>    -5.8292     0.0000    48.0000 </r>
       <r>    -5.6215     0.0000    48.0000 </r>
       <r>    -5.4138     0.0000    48.0000 </r>
       <r>    -5.2061     0.0000    48.0000 </r>
       <r>    -4.9983     0.0000    48.0000 </r>
       <r>    -4.7906     0.0000    48.0000 </r>
       <r>    -4.5829     0.0000    48.0000 </r>
       <r>    -4.3752     0.0000    48.0000 </r>
       <r>    -4.1674     0.0000    48.0000 </r>
       <r>    -3.9597     0.0000    48.0000 </r>
       <r>    -3.7520     0.0000    48.0000 </r>
       <r>    -3.5443     0.0000    48.0000 </r>
       <r>    -3.3365     0.0000    48.0000 </r>
       <r>    -3.1288     0.0000    48.0000 </r>
       <r>    -2.9211     0.0000    48.0000 </r>
       <r>    -2.7134     0.0000    48.0000 </r>
       <r>    -2.5056     0.0000    48.0000 </r>
       <r>    -2.2979    -0.0000    48.0000 </r>
       <r>    -2.0902    -0.0000    48.0000 </r>
       <r>    -1.8825    -0.0000    48.0000 </r>
       <r>    -1.6747    -0.0000    48.0000 </r>
       <r>    -1.4670    -0.0000    48.0000 </r>
       <r>    -1.2593    -0.0000    48.0000 </r>
       <r>    -1.0516    -0.0003    47.9999 </r>
       <r>    -0.8438    -0.0082    47.9982 </r>
       <r>    -0.6361     0.0133    48.0010 </r>
       <r>    -0.4284     0.3843    48.0808 </r>
       <r>    -0.2207     1.0847    48.3062 </r>
       <r>    -0.0129     1.7630    48.6724 </r>
       <r>     0.1948     1.7188    49.0294 </r>
       <r>     0.4025     1.3475    49.3093 </r>
       <r>     0.6102     2.3554    49.7986 </r>
       <r>     0.8180     3.2153    50.4665 </r>
       <r>     1.0257     3.2768    51.1472 </r>
       <r>     1.2334     2.7565    51.7198 </r>
       <r>     1.4411     4.2375    52.6000 </r>
       <r>     1.6489     4.3408    53.5017 </r>
       <r>     1.8566     4.4169    54.4192 </r>
       <r>     2.0643     6.7300    55.8172 </r>
       <r>     2.2720     9.9064    57.8750 </r>
       <r>     2.4797    15.0488    61.0010 </r>
       <r>     2.6875    18.4732    64.8383 </r>
       <r>     2.8952    22.0996    69.4290 </r>
       <r>     3.1029    26.0507    74.8403 </r>
       <r>     3.3106    28.3666    80.7327 </r>
       <r>     3.5184    29.6224    86.8860 </r>
       <r>     3.7261    29.2472    92.9614 </r>
       <r>     3.9338    29.2819    99.0439 </r>
       <r>     4.1415    28.9246   105.0523 </r>
       <r>     4.3493    25.7503   110.4013 </r>
       <r>     4.5570    27.6880   116.1527 </r>
       <r>     4.7647    35.2803   123.4813 </r>
       <r>     4.9724    39.0855   131.6003 </r>
       <r>     5.1802    39.0162   139.7049 </r>
       <r>     5.3879    37.8619   147.5698 </r>
       <r>     5.5956    36.2693   155.1038 </r>
       <r>     5.8033    36.5311   162.6922 </r>
       <r>     6.0111    38.9947   170.7923 </r>
       <r>     6.2188    39.9535   179.0916 </r>
       <r>     6.4265    39.3643   187.2685 </r>
       <r>     6.6342    36.4145   194.8327 </r>
       <r>     6.8420    31.5680   201.3901 </r>
       <r>     7.0497    25.9959   206.7901 </r>
       <r>     7.2574    19.9239   210.9288 </r>
       <r>     7.4651    15.6799   214.1859 </r>
       <r>     7.6729    14.7176   217.2431 </r>
       <r>     7.8806    16.4624   220.6627 </r>
       <r>     8.0883    19.6075   224.7357 </r>
       <r>     8.2960    21.5022   229.2022 </r>
       <r>     8.5038    21.6628   233.7021 </r>
       <r>     8.7115    16.8621   237.2048 </r>
       <r>     8.9192     9.3067   239.1380 </r>
       <r>     9.1269     3.6699   239.9003 </r>
       <r>     9.3347     0.5574   240.0161 </r>
       <r>     9.5424    -0.0681   240.0020 </r>
       <r>     9.7501    -0.0095   240.0000 </r>
       <r>     9.9578    -0.0001   240.0000 </r>
       <r>    10.1655    -0.0000   240.0000 </r>
       <r>    10.3733    -0.0000   240.0000 </r>
       <r>    10.5810    -0.0000   240.0000 </r>
       <r>    10.7887     0.0000   240.0000 </r>
       <r>    10.9964     0.0000   240.0000 </r>
       <r>    11.2042     0.0000   240.0000 </r>
       <r>    11.4119     0.0000   240.0000 </r>
       <r>    11.6196     0.0000   240.0000 </r>
       <r>    11.8273     0.0000   240.0000 </r>
       <r>    12.0351     0.0000   240.0000 </r>
      </set>
     </set>
    </array>
   </total>
  </dos>
 </calculation>
 <structure name="finalpos" >
  <crystal>
   <varray name="basis" >
    <v>      -3.18121722      -3.17625380      -3.20911077 </v>
    <v>       1.56296408       1.54477388      -7.95219340 </v>
    <v>       7.95819834      -7.94421912      -1.60590517 </v>
   </varray>
   <i name="volume">    481.19687791 </i>
   <varray name="rec_basis" >
    <v>      -0.13644047      -0.12629999      -0.05135143 </v>
    <v>       0.04237999       0.06369009      -0.10504961 </v>
    <v>       0.06279246      -0.06299579       0.00010413 </v>
   </varray>
  </crystal>
  <varray name="positions" >
   <v>       0.96582639       0.93120476       0.39564436 </v>
   <v>       0.62918658       0.26131806       0.40523109 </v>
   <v>       0.50120123       0.00497431      -0.00422076 </v>
   <v>      -0.00120829       0.00513333       0.00218897 </v>
   <v>       0.09521235       0.20560177       0.80010961 </v>
   <v>       0.02932611       0.06668261       0.59604060 </v>
   <v>       0.90080646       0.80026407       0.20354590 </v>
   <v>       0.80484820       0.59337651       0.40015455 </v>
   <v>       0.73237345       0.46919970       0.19985308 </v>
   <v>       0.66372843       0.34327571      -0.00182452 </v>
   <v>       0.36322973       0.72288275       0.60015484 </v>
   <v>       0.12554132       0.27147826       0.39947802 </v>
   <v>       0.83209373       0.66929930       0.00060536 </v>
   <v>       0.93165569       0.87223752       0.79812993 </v>
   <v>       0.56244526       0.13455468       0.20090216 </v>
   <v>       0.40714004       0.79632169       0.19996394 </v>
   <v>       0.43681584       0.86456643       0.78828665 </v>
   <v>       0.30245402       0.59730742       0.40461228 </v>
   <v>       0.86194434       0.72695702       0.59618951 </v>
   <v>       0.46384762       0.93044664       0.41494668 </v>
   <v>       0.17457867       0.33756942       0.00195258 </v>
   <v>       0.27339391       0.53398597       0.79527763 </v>
   <v>       0.21814121       0.36959982       0.59691862 </v>
   <v>       0.05758376       0.14842194       0.20882395 </v>
   <v>       0.77118241       0.53170113       0.79829369 </v>
   <v>       0.70011374       0.40627042       0.60318010 </v>
   <v>       0.59842487       0.20519832       0.79609828 </v>
   <v>       0.33421704       0.66225211      -0.00090496 </v>
   <v>       0.23056259       0.47125164       0.20036784 </v>
  </varray>
 </structure>
</modeling>
