SQS with 1 vacancy for VFE and VRV      
           1
    -3.190000   -3.190000   -3.190000
     1.595000    1.595000   -7.975000
     7.975000   -7.975000   -1.595000
   Nb   Mo   Ta   Ti   W 
   6   6   6   6   5
Direct configuration=     1
   0.96666667  0.93333333  0.40000000
   0.63333333  0.26666667  0.40000000
   0.50000000  0.00000000  0.00000000
   0.00000000  0.00000000  0.00000000
   0.10000000  0.20000000  0.80000000
   0.03333333  0.06666667  0.60000000
   0.90000000  0.80000000  0.20000000
   0.80000000  0.60000000  0.40000000
   0.73333333  0.46666667  0.20000000
   0.66666667  0.33333333  0.00000000
   0.36666667  0.73333333  0.60000000
   0.13333333  0.26666667  0.40000000
   0.83333333  0.66666667  0.00000000
   0.93333333  0.86666667  0.80000000
   0.56666667  0.13333333  0.20000000
   0.40000000  0.80000000  0.20000000
   0.43333333  0.86666667  0.80000000
   0.30000000  0.60000000  0.40000000
   0.86666667  0.73333333  0.60000000
   0.46666667  0.93333333  0.40000000
   0.16666667  0.33333333  0.00000000
   0.26666667  0.53333333  0.80000000
   0.20000000  0.40000000  0.60000000
   0.06666667  0.13333333  0.20000000
   0.76666667  0.53333333  0.80000000
   0.70000000  0.40000000  0.60000000
   0.60000000  0.20000000  0.80000000
   0.33333333  0.66666667  0.00000000
   0.23333333  0.46666667  0.20000000
SQS with 1 vacancy for VFE and VRV      
           1
    -3.148334   -3.148679   -3.164451
     1.563635    1.568838   -7.895092
     7.885167   -7.892895   -1.575361
   Nb   Mo   Ta   Ti   W 
   6   6   6   6   5
Direct configuration=     2
   0.96709268  0.93331184  0.39759052
   0.63325656  0.26520780  0.40200046
   0.49953393  0.00230891 -0.00106743
  -0.00108480  0.00084337  0.00062892
   0.09609732  0.20404742  0.79936832
   0.03502610  0.06796748  0.59854051
   0.90004393  0.79889970  0.20256272
   0.80293278  0.59642200  0.39954057
   0.73418345  0.46692717  0.19888340
   0.66437664  0.33762363 -0.00081967
   0.36594699  0.72966463  0.60035118
   0.13033743  0.27076540  0.39880533
   0.83336796  0.66446574  0.00182450
   0.93284098  0.86908943  0.79991666
   0.56618536  0.13369993  0.19896989
   0.40458672  0.79586004  0.19853789
   0.43538019  0.86317337  0.79667305
   0.30021099  0.60127578  0.40237110
   0.86512773  0.73275794  0.59911179
   0.46389520  0.93257809  0.40334558
   0.16952293  0.33346288  0.00054175
   0.26902547  0.53443434  0.79878771
   0.20149262  0.39413000  0.59890848
   0.06504942  0.13741920  0.20331779
   0.76776700  0.53033599  0.79920473
   0.69963283  0.40578389  0.60230010
   0.59987074  0.20182889  0.79884914
   0.33427224  0.66090553  0.00131104
   0.23069527  0.46814292  0.19964399
SQS with 1 vacancy for VFE and VRV      
           1
    -3.158211   -3.158475   -3.170507
     1.571070    1.575040   -7.914035
     7.906463   -7.912359   -1.580017
   Nb   Mo   Ta   Ti   W 
   6   6   6   6   5
Direct configuration=     3
   0.96698991  0.93331755  0.39816795
   0.63327422  0.26555725  0.40152117
   0.49964744  0.00175527 -0.00081181
  -0.00082364  0.00064062  0.00047813
   0.09703708  0.20307547  0.79951936
   0.03462060  0.06765649  0.59889018
   0.90003304  0.79916313  0.20194866
   0.80222593  0.59728117  0.39965097
   0.73397941  0.46686523  0.19915097
   0.66492954  0.33659413 -0.00062359
   0.36611678  0.73054394  0.60026730
   0.13105950  0.26978161  0.39909129
   0.83335824  0.66499319  0.00138744
   0.93296110  0.86850833  0.79993644
   0.56630094  0.13361200  0.19921672
   0.40348227  0.79685478  0.19888864
   0.43488540  0.86401234  0.79747063
   0.30016191  0.60096959  0.40180278
   0.86549639  0.73289543  0.59932469
   0.46456041  0.93275752  0.40254387
   0.16883769  0.33343288  0.00041193
   0.26846003  0.53417149  0.79907816
   0.20112938  0.39553825  0.59917053
   0.06544159  0.13643833  0.20252236
   0.76750032  0.53105525  0.79939556
   0.69972617  0.40439655  0.60174843
   0.59990301  0.20139050  0.79912480
   0.33404249  0.66228708  0.00099731
   0.23132950  0.46778794  0.19972917
SQS with 1 vacancy for VFE and VRV      
           1
    -3.166610   -3.167369   -3.192634
     1.566753    1.573461   -7.954812
     7.940274   -7.951902   -1.586581
   Nb   Mo   Ta   Ti   W 
   6   6   6   6   5
Direct configuration=     4
   0.96668711  0.93347821  0.39630172
   0.63276251  0.26398475  0.40356416
   0.49917965  0.00349442 -0.00193549
  -0.00156006  0.00152378  0.00112768
   0.09446874  0.20611325  0.79893988
   0.03618553  0.06885933  0.59742413
   0.90012761  0.79841031  0.20403455
   0.80458264  0.59458890  0.39943078
   0.73472892  0.46659987  0.19847231
   0.66313772  0.34001409 -0.00128566
   0.36556917  0.72745335  0.60058381
   0.12863195  0.27306766  0.39827616
   0.83336779  0.66362794  0.00264032
   0.93228976  0.87057548  0.79962283
   0.56561794  0.13379392  0.19855541
   0.40712752  0.79379361  0.19798036
   0.43670623  0.86147370  0.79426569
   0.30070780  0.60156347  0.40400437
   0.86363916  0.73281957  0.59837212
   0.46244744  0.93216981  0.40590225
   0.17159915  0.33340046  0.00084971
   0.27025551  0.53501646  0.79790819
   0.20329723  0.38961383  0.59818910
   0.06382176  0.14034092  0.20547844
   0.76891874  0.52889437  0.79873428
   0.69914388  0.40913807  0.60349340
   0.59921236  0.20308457  0.79772827
   0.33460319  0.65762014  0.00171084
   0.22940970  0.46881909  0.19963038
SQS with 1 vacancy for VFE and VRV      
           1
    -3.169090   -3.169995   -3.199166
     1.565478    1.572995   -7.966851
     7.950256   -7.963578   -1.588519
   Nb   Mo   Ta   Ti   W 
   6   6   6   6   5
Direct configuration=     5
   0.96659827  0.93352537  0.39575327
   0.63261287  0.26352276  0.40416450
   0.49904075  0.00400592 -0.00226564
  -0.00177764  0.00178387  0.00131863
   0.09371055  0.20700757  0.79876976
   0.03664527  0.06921224  0.59699333
   0.90015564  0.79818913  0.20464752
   0.80527843  0.59379618  0.39936592
   0.73494983  0.46652145  0.19827284
   0.66260770  0.34102046 -0.00148005
   0.36541064  0.72654476  0.60067668
   0.12791501  0.27403490  0.39803679
   0.83337151  0.66322660  0.00300846
   0.93209052  0.87118361  0.79953078
   0.56541696  0.13384762  0.19836108
   0.40820291  0.79289180  0.19771325
   0.43724484  0.86072605  0.79332365
   0.30086745  0.60173813  0.40465142
   0.86309296  0.73279793  0.59809219
   0.46182553  0.93199823  0.40688922
   0.17241162  0.33338984  0.00097834
   0.27078333  0.53526407  0.79756438
   0.20394039  0.38787062  0.59790036
   0.06334118  0.14148956  0.20634740
   0.76933809  0.52825826  0.79853982
   0.69896811  0.41053284  0.60400646
   0.59900798  0.20358287  0.79731794
   0.33477203  0.65624758  0.00192029
   0.22884395  0.46912310  0.19960142
SQS with 1 vacancy for VFE and VRV      
           1
    -3.173205   -3.173155   -3.203370
     1.566923    1.570063   -7.972278
     7.959495   -7.967988   -1.593029
   Nb   Mo   Ta   Ti   W 
   6   6   6   6   5
Direct configuration=     6
   0.96604304  0.93351568  0.39588325
   0.63187500  0.26354486  0.40447527
   0.49945180  0.00335926 -0.00285594
  -0.00164698  0.00185306  0.00154965
   0.09467180  0.20612477  0.79891275
   0.03674953  0.06944075  0.59665800
   0.90045852  0.79830196  0.20434643
   0.80497259  0.59433971  0.39956463
   0.73448478  0.46603088  0.19887012
   0.66294751  0.34048319 -0.00153581
   0.36506299  0.72657472  0.60070117
   0.12768254  0.27400065  0.39820562
   0.83299965  0.66427236  0.00246640
   0.93183532  0.87143205  0.79940431
   0.56509274  0.13375532  0.19872680
   0.40787742  0.79323932  0.19818435
   0.43708085  0.86101353  0.79286309
   0.30162946  0.60092182  0.40469473
   0.86236160  0.73293884  0.59782638
   0.46207937  0.93189231  0.40765716
   0.17300612  0.33336115  0.00103461
   0.27061567  0.53498074  0.79732506
   0.20549896  0.38615496  0.59771140
   0.06275700  0.14242290  0.20672888
   0.76989602  0.52939696  0.79876216
   0.69872120  0.41007994  0.60363450
   0.59846873  0.20395325  0.79683033
   0.33432576  0.65703135  0.00127408
   0.22966768  0.46891707  0.20010062
SQS with 1 vacancy for VFE and VRV      
           1
    -3.178515   -3.177233   -3.208794
     1.568788    1.566280   -7.979281
     7.971416   -7.973678   -1.598849
   Nb   Mo   Ta   Ti   W 
   6   6   6   6   5
Direct configuration=     7
   0.96532754  0.93350313  0.39605079
   0.63092419  0.26357319  0.40487588
   0.49998160  0.00252562 -0.00361673
  -0.00147849  0.00194212  0.00184749
   0.09591129  0.20498595  0.79909750
   0.03688356  0.06973572  0.59622561
   0.90084862  0.79844769  0.20395824
   0.80457821  0.59504062  0.39982062
   0.73388606  0.46539773  0.19964029
   0.66338576  0.33979024 -0.00160749
   0.36461494  0.72661336  0.60073271
   0.12738304  0.27395638  0.39842327
   0.83251945  0.66562161  0.00176715
   0.93150618  0.87175260  0.79924114
   0.56467515  0.13363603  0.19919830
   0.40745801  0.79368722  0.19879157
   0.43686905  0.86138468  0.79226920
   0.30261208  0.59986885  0.40475091
   0.86141874  0.73312084  0.59748358
   0.46240705  0.93175510  0.40864728
   0.17377239  0.33332406  0.00110721
   0.27039961  0.53461549  0.79701661
   0.20750859  0.38394213  0.59746851
   0.06200377  0.14362646  0.20722032
   0.77061457  0.53086541  0.79904845
   0.69840302  0.40949609  0.60315509
   0.59777322  0.20443137  0.79620150
   0.33374973  0.65804277  0.00044064
   0.23072975  0.46865088  0.20074436
SQS with 1 vacancy for VFE and VRV      
           1
    -3.175048   -3.172480   -3.205281
     1.565700    1.559722   -7.965008
     7.961053   -7.958622   -1.598539
   Nb   Mo   Ta   Ti   W 
   6   6   6   6   5
Direct configuration=     8
   0.96505456  0.93344803  0.39609828
   0.63035292  0.26346173  0.40514818
   0.50038656  0.00214206 -0.00405780
  -0.00141377  0.00204444  0.00200065
   0.09627738  0.20452875  0.79921660
   0.03686604  0.06986901  0.59598529
   0.90103255  0.79849248  0.20375542
   0.80437958  0.59536639  0.39998653
   0.73343774  0.46538661  0.20000647
   0.66361936  0.33958548 -0.00169207
   0.36430388  0.72649205  0.60071829
   0.12710351  0.27392183  0.39858347
   0.83224858  0.66629705  0.00142147
   0.93130070  0.87209407  0.79903210
   0.56440550  0.13349209  0.19951864
   0.40733837  0.79387472  0.19913722
   0.43666097  0.86162972  0.79183382
   0.30302726  0.59933072  0.40475849
   0.86080407  0.73310797  0.59724630
   0.46260364  0.93161362  0.40939518
   0.17423852  0.33342475  0.00120523
   0.27052012  0.53436204  0.79677222
   0.20891018  0.38227547  0.59732566
   0.06137355  0.14446054  0.20760172
   0.77095071  0.53147318  0.79911150
   0.69845430  0.40920760  0.60300533
   0.59757130  0.20474455  0.79582568
   0.33364295  0.65858242  0.00004458
   0.23121564  0.46862397  0.20101556
SQS with 1 vacancy for VFE and VRV      
           1
    -3.173026   -3.169707   -3.203231
     1.563899    1.555896   -7.956680
     7.955006   -7.949838   -1.598359
   Nb   Mo   Ta   Ti   W 
   6   6   6   6   5
Direct configuration=     9
   0.96489512  0.93341581  0.39612602
   0.63001931  0.26339651  0.40530729
   0.50062312  0.00191792 -0.00431548
  -0.00137595  0.00210421  0.00209015
   0.09649142  0.20426141  0.79928628
   0.03685569  0.06994700  0.59584483
   0.90113992  0.79851872  0.20363690
   0.80426350  0.59555682  0.40008344
   0.73317596  0.46538003  0.20022044
   0.66375586  0.33946579 -0.00174147
   0.36412219  0.72642115  0.60070986
   0.12694028  0.27390160  0.39867708
   0.83209004  0.66669205  0.00121936
   0.93118049  0.87229378  0.79890988
   0.56424811  0.13340786  0.19970585
   0.40726852  0.79398425  0.19933918
   0.43653922  0.86177311  0.79157936
   0.30326996  0.59901608  0.40476300
   0.86044493  0.73310053  0.59710761
   0.46271875  0.93153068  0.40983226
   0.17451083  0.33348357  0.00126252
   0.27059052  0.53421392  0.79662944
   0.20972941  0.38130105  0.59724247
   0.06100526  0.14494810  0.20782447
   0.77114692  0.53182848  0.79914829
   0.69848430  0.40903898  0.60291785
   0.59745314  0.20492776  0.79560601
   0.33358029  0.65889803 -0.00018694
   0.23149957  0.46860813  0.20117407
SQS with 1 vacancy for VFE and VRV      
           1
    -3.174453   -3.170156   -3.204530
     1.563041    1.553483   -7.955755
     7.956543   -7.948723   -1.599206
   Nb   Mo   Ta   Ti   W 
   6   6   6   6   5
Direct configuration=    10
   0.96493102  0.93335953  0.39611615
   0.62978002  0.26308556  0.40551410
   0.50083445  0.00198018 -0.00444650
  -0.00137303  0.00226756  0.00211828
   0.09626847  0.20436917  0.79934077
   0.03669322  0.06988654  0.59576820
   0.90112049  0.79852535  0.20360444
   0.80422134  0.59558326  0.40017490
   0.73294055  0.46582574  0.20023618
   0.66383890  0.33964720 -0.00180564
   0.36390177  0.72619830  0.60066400
   0.12673034  0.27381678  0.39880455
   0.83208733  0.66670915  0.00118427
   0.93108309  0.87254497  0.79859561
   0.56414062  0.13323396  0.19989307
   0.40733425  0.79403134  0.19946530
   0.43642534  0.86197643  0.79121341
   0.30312459  0.59895602  0.40481617
   0.86009471  0.73301047  0.59695507
   0.46283188  0.93143130  0.41042490
   0.17472304  0.33367714  0.00135413
   0.27093436  0.53409603  0.79642474
   0.21064593  0.38009439  0.59720488
   0.06048054  0.14543857  0.20809203
   0.77121665  0.53173752  0.79902078
   0.69881743  0.40896646  0.60299346
   0.59756962  0.20506564  0.79541628
   0.33379571  0.65904758 -0.00025618
   0.23147403  0.46877118  0.20111264
SQS with 1 vacancy for VFE and VRV      
           1
    -3.178732   -3.171503   -3.208428
     1.560466    1.546244   -7.952978
     7.961155   -7.945377   -1.601746
   Nb   Mo   Ta   Ti   W 
   6   6   6   6   5
Direct configuration=    11
   0.96503873  0.93319064  0.39608657
   0.62906292  0.26215232  0.40613455
   0.50146805  0.00216710 -0.00483951
  -0.00136445  0.00275774  0.00220259
   0.09559978  0.20469257  0.79950414
   0.03620598  0.06970517  0.59553830
   0.90106219  0.79854530  0.20350705
   0.80409497  0.59566256  0.40044928
   0.73223406  0.46716328  0.20028325
   0.66408766  0.34019162 -0.00199819
   0.36324092  0.72552961  0.60052644
   0.12610096  0.27356216  0.39918696
   0.83207914  0.66676047  0.00107901
   0.93079040  0.87329899  0.79765272
   0.56381863  0.13271199  0.20045476
   0.40753142  0.79417257  0.19984364
   0.43608324  0.86258686  0.79011552
   0.30268876  0.59877576  0.40497567
   0.85904433  0.73274037  0.59649745
   0.46317184  0.93113265  0.41220283
   0.17535935  0.33425792  0.00162894
   0.27196548  0.53374232  0.79581076
   0.21339594  0.37647329  0.59709266
   0.05890657  0.14691033  0.20889446
   0.77142577  0.53146463  0.79863828
   0.69981667  0.40874872  0.60322035
   0.59791861  0.20547954  0.79484709
   0.33444153  0.65949637 -0.00046388
   0.23139720  0.46926051  0.20092831
SQS with 1 vacancy for VFE and VRV      
           1
    -3.180794   -3.172152   -3.210305
     1.559225    1.542757   -7.951641
     7.963376   -7.943765   -1.602969
   Nb   Mo   Ta   Ti   W 
   6   6   6   6   5
Direct configuration=    12
   0.96509065  0.93310920  0.39607235
   0.62871855  0.26170216  0.40643351
   0.50177273  0.00225731 -0.00502881
  -0.00136055  0.00299407  0.00224314
   0.09527783  0.20484850  0.79958274
   0.03597146  0.06961783  0.59542753
   0.90103407  0.79855495  0.20346013
   0.80403422  0.59570071  0.40058143
   0.73189331  0.46780827  0.20030567
   0.66420701  0.34045418 -0.00209100
   0.36292314  0.72520727  0.60046021
   0.12579833  0.27343930  0.39937116
   0.83207513  0.66678526  0.00102830
   0.93064870  0.87366290  0.79719836
   0.56366418  0.13246014  0.20072540
   0.40762641  0.79424053  0.20002590
   0.43591777  0.86288158  0.78958650
   0.30247916  0.59868882  0.40505249
   0.85853871  0.73261035  0.59627694
   0.46333642  0.93098804  0.41305941
   0.17566543  0.33453784  0.00176130
   0.27246170  0.53357189  0.79551511
   0.21472149  0.37472705  0.59703935
   0.05814854  0.14761985  0.20928067
   0.77152641  0.53133316  0.79845408
   0.70029785  0.40864358  0.60332978
   0.59808611  0.20567927  0.79457285
   0.33475205  0.65971279 -0.00056394
   0.23135987  0.46949653  0.20083943
SQS with 1 vacancy for VFE and VRV      
           1
    -3.183127   -3.176369   -3.213432
     1.561027    1.544975   -7.960202
     7.968973   -7.953523   -1.605080
   Nb   Mo   Ta   Ti   W 
   6   6   6   6   5
Direct configuration=    13
   0.96529942  0.93293008  0.39599507
   0.62880726  0.26166944  0.40635639
   0.50179003  0.00264433 -0.00486696
  -0.00133006  0.00314740  0.00212435
   0.09532032  0.20514467  0.79974561
   0.03543402  0.06925273  0.59553399
   0.90100739  0.79876301  0.20360937
   0.80405208  0.59531543  0.40051683
   0.73205701  0.46790226  0.20031767
   0.66397678  0.34086835 -0.00200571
   0.36294167  0.72494065  0.60041737
   0.12566488  0.27335051  0.39936734
   0.83248246  0.66686452  0.00087146
   0.93047946  0.87347642  0.79727304
   0.56357722  0.13257208  0.20072630
   0.40753325  0.79453618  0.19986154
   0.43604999  0.86313081  0.78940318
   0.30231749  0.59852197  0.40511390
   0.85861137  0.73223879  0.59621613
   0.46346042  0.93091434  0.41335221
   0.17557091  0.33476923  0.00181780
   0.27275888  0.53362591  0.79543271
   0.21533267  0.37429698  0.59704417
   0.05792900  0.14772991  0.20924129
   0.77138369  0.53125848  0.79839717
   0.70027152  0.40855772  0.60322913
   0.59810393  0.20545238  0.79472874
   0.33463480  0.65973052 -0.00059669
   0.23114883  0.46972822  0.20077660
SQS with 1 vacancy for VFE and VRV      
           1
    -3.183078   -3.176280   -3.213366
     1.560989    1.544927   -7.960020
     7.968854   -7.953316   -1.605035
   Nb   Mo   Ta   Ti   W 
   6   6   6   6   5
Direct configuration=    14
   0.96529498  0.93293389  0.39599671
   0.62880537  0.26167013  0.40635803
   0.50178966  0.00263610 -0.00487040
  -0.00133071  0.00314414  0.00212687
   0.09531942  0.20513837  0.79974215
   0.03544544  0.06926049  0.59553173
   0.90100796  0.79875859  0.20360620
   0.80405170  0.59532361  0.40051820
   0.73205353  0.46790026  0.20031741
   0.66398168  0.34085955 -0.00200753
   0.36294127  0.72494632  0.60041828
   0.12566772  0.27335239  0.39936742
   0.83247380  0.66686284  0.00087480
   0.93048306  0.87348038  0.79727145
   0.56357906  0.13256971  0.20072628
   0.40753523  0.79452990  0.19986503
   0.43604717  0.86312552  0.78940708
   0.30232093  0.59852551  0.40511259
   0.85860983  0.73224669  0.59621742
   0.46345779  0.93091591  0.41334599
   0.17557292  0.33476432  0.00181660
   0.27275256  0.53362476  0.79543446
   0.21531968  0.37430612  0.59704407
   0.05793366  0.14772757  0.20924212
   0.77138672  0.53126007  0.79839838
   0.70027208  0.40855955  0.60323127
   0.59810355  0.20545720  0.79472543
   0.33463729  0.65973015 -0.00059599
   0.23115332  0.46972330  0.20077794
SQS with 1 vacancy for VFE and VRV      
           1
    -3.181610   -3.176544   -3.212611
     1.560815    1.545192   -7.958826
     7.964753   -7.953088   -1.605115
   Nb   Mo   Ta   Ti   W 
   6   6   6   6   5
Direct configuration=    15
   0.96551412  0.93274509  0.39592375
   0.62894072  0.26168489  0.40621590
   0.50179435  0.00297732 -0.00470578
  -0.00128887  0.00328610  0.00202880
   0.09535221  0.20539242  0.79987955
   0.03487942  0.06889793  0.59565300
   0.90099556  0.79895513  0.20373134
   0.80405364  0.59495423  0.40043891
   0.73221457  0.46796103  0.20031103
   0.66375031  0.34125735 -0.00191669
   0.36300604  0.72473212  0.60035362
   0.12557168  0.27323535  0.39932802
   0.83273145  0.66701300  0.00075183
   0.93036863  0.87330655  0.79739278
   0.56349207  0.13273516  0.20071765
   0.40745566  0.79477028  0.19972201
   0.43611588  0.86330003  0.78928410
   0.30223669  0.59839381  0.40511379
   0.85875557  0.73186182  0.59616454
   0.46356100  0.93084126  0.41353359
   0.17543215  0.33498001  0.00188010
   0.27300533  0.53369877  0.79539083
   0.21577656  0.37398751  0.59704550
   0.05778930  0.14776975  0.20918713
   0.77123029  0.53121364  0.79835985
   0.70023417  0.40844759  0.60315020
   0.59816721  0.20522752  0.79492054
   0.33456713  0.65976891 -0.00059944
   0.23096382  0.46993875  0.20074353
SQS with 1 vacancy for VFE and VRV      
           1
    -3.178698   -3.177070   -3.211113
     1.560469    1.545718   -7.956455
     7.956614   -7.952636   -1.605274
   Nb   Mo   Ta   Ti   W 
   6   6   6   6   5
Direct configuration=    16
   0.96594920  0.93237031  0.39577886
   0.62920957  0.26171415  0.40593368
   0.50180352  0.00365468 -0.00437894
  -0.00120567  0.00356786  0.00183410
   0.09541721  0.20589674  0.80015233
   0.03375559  0.06817826  0.59589387
   0.90097085  0.79934529  0.20397980
   0.80405753  0.59422099  0.40028147
   0.73253427  0.46808165  0.20029833
   0.66329098  0.34204698 -0.00173627
   0.36313466  0.72430693  0.60022521
   0.12538105  0.27300301  0.39924982
   0.83324307  0.66731106  0.00050766
   0.93014133  0.87296152  0.79763367
   0.56331939  0.13306358  0.20070053
   0.40729789  0.79524740  0.19943810
   0.43625244  0.86364641  0.78903995
   0.30206944  0.59813239  0.40511619
   0.85904491  0.73109785  0.59605949
   0.46376569  0.93069315  0.41390601
   0.17515265  0.33540818  0.00200621
   0.27350718  0.53384569  0.79530417
   0.21668348  0.37335511  0.59704824
   0.05750278  0.14785344  0.20907799
   0.77091978  0.53112148  0.79828339
   0.70015898  0.40822532  0.60298927
   0.59829333  0.20477165  0.79530786
   0.33442785  0.65984584 -0.00060628
   0.23058771  0.47036639  0.20067528
SQS with 1 vacancy for VFE and VRV      
           1
    -3.178613   -3.176963   -3.210359
     1.561135    1.545623   -7.955244
     7.956115   -7.951335   -1.605636
   Nb   Mo   Ta   Ti   W 
   6   6   6   6   5
Direct configuration=    17
   0.96600368  0.93221611  0.39579867
   0.62925153  0.26164307  0.40580094
   0.50169946  0.00378572 -0.00431924
  -0.00110845  0.00375045  0.00188222
   0.09538830  0.20591287  0.80012959
   0.03315623  0.06796049  0.59600014
   0.90094783  0.79945115  0.20390088
   0.80401875  0.59413737  0.40023442
   0.73249304  0.46824851  0.20019175
   0.66326434  0.34222540 -0.00168403
   0.36313626  0.72416282  0.60018383
   0.12549304  0.27276170  0.39925859
   0.83299605  0.66753312  0.00055522
   0.93041380  0.87278698  0.79766803
   0.56315429  0.13326582  0.20078391
   0.40726938  0.79535166  0.19947809
   0.43616966  0.86384861  0.78897134
   0.30213206  0.59811936  0.40496946
   0.85929638  0.73068340  0.59605021
   0.46386140  0.93064595  0.41399604
   0.17502868  0.33566752  0.00202173
   0.27347561  0.53385403  0.79532527
   0.21690974  0.37297346  0.59708462
   0.05752054  0.14787908  0.20897788
   0.77096264  0.53120239  0.79825820
   0.70029516  0.40790253  0.60301830
   0.59833112  0.20478721  0.79544472
   0.33455969  0.66011264 -0.00064050
   0.23054649  0.47046391  0.20065972
SQS with 1 vacancy for VFE and VRV      
           1
    -3.178360   -3.176644   -3.208097
     1.563134    1.545337   -7.951611
     7.954620   -7.947432   -1.606723
   Nb   Mo   Ta   Ti   W 
   6   6   6   6   5
Direct configuration=    18
   0.96616705  0.93175348  0.39585813
   0.62937734  0.26142984  0.40540270
   0.50138732  0.00417882 -0.00414011
  -0.00081670  0.00429828  0.00202658
   0.09530154  0.20596129  0.80006135
   0.03135794  0.06730696  0.59631899
   0.90087881  0.79976879  0.20366410
   0.80390237  0.59388649  0.40009329
   0.73236939  0.46874916  0.19987196
   0.66318451  0.34276070 -0.00152733
   0.36314098  0.72373044  0.60005970
   0.12582892  0.27203770  0.39928492
   0.83225505  0.66819930  0.00069787
   0.93123118  0.87226338  0.79777113
   0.56265905  0.13387254  0.20103405
   0.40718388  0.79566448  0.19959805
   0.43592138  0.86445526  0.78876546
   0.30231989  0.59808032  0.40452923
   0.86005065  0.72943999  0.59602242
   0.46414853  0.93050430  0.41426617
   0.17465686  0.33644559  0.00206825
   0.27338089  0.53387905  0.79538859
   0.21758840  0.37182843  0.59719382
   0.05757381  0.14795603  0.20867751
   0.77109125  0.53144515  0.79818260
   0.70070358  0.40693405  0.60310544
   0.59844454  0.20483386  0.79585532
   0.33495534  0.66091316 -0.00074321
   0.23042289  0.47075649  0.20061301
SQS with 1 vacancy for VFE and VRV      
           1
    -3.181524   -3.178684   -3.210237
     1.564626    1.546200   -7.956725
     7.961994   -7.951967   -1.607818
   Nb   Mo   Ta   Ti   W 
   6   6   6   6   5
Direct configuration=    19
   0.96608765  0.93158242  0.39584198
   0.62936075  0.26134472  0.40532079
   0.50128422  0.00441058 -0.00411364
  -0.00087302  0.00458534  0.00210043
   0.09527238  0.20584274  0.80007149
   0.03059912  0.06708595  0.59629633
   0.90083746  0.79993429  0.20356260
   0.80415799  0.59379813  0.40008343
   0.73235170  0.46888169  0.19981371
   0.66336390  0.34288083 -0.00156394
   0.36315009  0.72348608  0.60006363
   0.12586576  0.27174842  0.39933859
   0.83215333  0.66856513  0.00069909
   0.93145225  0.87210852  0.79790102
   0.56250369  0.13412911  0.20104436
   0.40711418  0.79589142  0.19972649
   0.43610193  0.86459451  0.78861854
   0.30233051  0.59787747  0.40445769
   0.86056794  0.72873373  0.59604284
   0.46416631  0.93046519  0.41444038
   0.17456116  0.33683354  0.00204522
   0.27331641  0.53389681  0.79540460
   0.21782660  0.37119085  0.59715263
   0.05762671  0.14803675  0.20862976
   0.77115555  0.53160707  0.79818550
   0.70065888  0.40658063  0.60313051
   0.59847192  0.20494992  0.79597737
   0.33474770  0.66140946 -0.00081849
   0.23045361  0.47088204  0.20054707
SQS with 1 vacancy for VFE and VRV      
           1
    -3.180733   -3.178173   -3.209702
     1.564253    1.545984   -7.955446
     7.960150   -7.950833   -1.607544
   Nb   Mo   Ta   Ti   W 
   6   6   6   6   5
Direct configuration=    20
   0.96610749  0.93162517  0.39584602
   0.62936490  0.26136599  0.40534126
   0.50130998  0.00435266 -0.00412025
  -0.00085896  0.00451361  0.00208198
   0.09527967  0.20587237  0.80006896
   0.03078873  0.06714119  0.59630201
   0.90084780  0.79989293  0.20358796
   0.80409412  0.59382021  0.40008589
   0.73235612  0.46884857  0.19982827
   0.66331908  0.34285080 -0.00155479
   0.36314782  0.72354714  0.60006264
   0.12585655  0.27182071  0.39932518
   0.83217874  0.66847371  0.00069879
   0.93139700  0.87214722  0.79786856
   0.56254251  0.13406500  0.20104179
   0.40713158  0.79583471  0.19969440
   0.43605683  0.86455971  0.78865525
   0.30232787  0.59792816  0.40447557
   0.86043869  0.72891023  0.59603772
   0.46416185  0.93047497  0.41439685
   0.17458507  0.33673659  0.00205098
   0.27333252  0.53389237  0.79540060
   0.21776709  0.37135017  0.59716291
   0.05761349  0.14801657  0.20864169
   0.77113948  0.53156661  0.79818478
   0.70067005  0.40666895  0.60312424
   0.59846507  0.20492092  0.79594687
   0.33479958  0.66128543 -0.00079967
   0.23044594  0.47085066  0.20056355
SQS with 1 vacancy for VFE and VRV      
           1
    -3.181597   -3.177656   -3.209783
     1.564105    1.545574   -7.954922
     7.961240   -7.948937   -1.607118
   Nb   Mo   Ta   Ti   W 
   6   6   6   6   5
Direct configuration=    21
   0.96598522  0.93147119  0.39577981
   0.62930734  0.26134159  0.40531284
   0.50127031  0.00457736 -0.00414398
  -0.00101201  0.00474588  0.00212785
   0.09524536  0.20573405  0.80009913
   0.03020806  0.06699347  0.59619378
   0.90081535  0.80002685  0.20354143
   0.80445090  0.59369259  0.40010796
   0.73234911  0.46895073  0.19983209
   0.66352641  0.34294969 -0.00165441
   0.36317331  0.72329258  0.60010003
   0.12576544  0.27166995  0.39939488
   0.83221595  0.66880328  0.00065344
   0.93149648  0.87210554  0.79800364
   0.56243838  0.13428649  0.20098547
   0.40711734  0.79603989  0.19981624
   0.43639306  0.86456828  0.78850948
   0.30234376  0.59766340  0.40452599
   0.86099291  0.72819528  0.59608339
   0.46407526  0.93044466  0.41459021
   0.17456457  0.33708966  0.00200905
   0.27332737  0.53391915  0.79537782
   0.21791649  0.37073387  0.59706774
   0.05763164  0.14814282  0.20868661
   0.77115534  0.53168328  0.79821192
   0.70047233  0.40647643  0.60314326
   0.59847881  0.20504747  0.79601640
   0.33446888  0.66170551 -0.00085605
   0.23049331  0.47098238  0.20048396
SQS with 1 vacancy for VFE and VRV      
           1
    -3.183939   -3.176252   -3.210003
     1.563705    1.544460   -7.953501
     7.964198   -7.943796   -1.605962
   Nb   Mo   Ta   Ti   W 
   6   6   6   6   5
Direct configuration=    22
   0.96565363  0.93105366  0.39560027
   0.62915125  0.26127545  0.40523578
   0.50116272  0.00518669 -0.00420835
  -0.00142700  0.00537574  0.00225218
   0.09515241  0.20535895  0.80018094
   0.02863350  0.06659293  0.59590016
   0.90072731  0.80039003  0.20341523
   0.80541832  0.59334652  0.40016791
   0.73233008  0.46922777  0.19984245
   0.66408847  0.34321786 -0.00192450
   0.36324250  0.72260223  0.60020144
   0.12551850  0.27126108  0.39958386
   0.83231675  0.66969705  0.00053047
   0.93176636  0.87199248  0.79836996
   0.56215595  0.13488718  0.20083270
   0.40707881  0.79659627  0.20014664
   0.43730456  0.86459155  0.78811428
   0.30238694  0.59694542  0.40466273
   0.86249575  0.72625644  0.59620738
   0.46384069  0.93036238  0.41511455
   0.17450890  0.33804713  0.00189533
   0.27331338  0.53399179  0.79531605
   0.21832153  0.36906260  0.59680975
   0.05768086  0.14848518  0.20880841
   0.77119834  0.53199969  0.79828552
   0.69993626  0.40595433  0.60319479
   0.59851614  0.20539061  0.79620494
   0.33357210  0.66284472 -0.00100903
   0.23062164  0.47133959  0.20026816
SQS with 1 vacancy for VFE and VRV      
           1
    -3.182689   -3.177001   -3.209885
     1.563918    1.545054   -7.954260
     7.962620   -7.946539   -1.606579
   Nb   Mo   Ta   Ti   W 
   6   6   6   6   5
Direct configuration=    23
   0.96583062  0.93127647  0.39569612
   0.62923457  0.26131074  0.40527693
   0.50122020  0.00486146 -0.00417397
  -0.00120563  0.00503959  0.00218590