  30  30   0   0
  0.1607872E+02  0.6360000E-09  0.8261882E-09  0.1005604E-08  0.5000000E-15
  1.000000000000000E-004
  CAR 
 Nb - Mo - Ta - Ti - W SQS               
     12.42527693    -49.80473097  301      6.99874838      1.00000000
    -49.805  0.0000E+00  0.0000E+00
    -49.597  0.0000E+00  0.0000E+00
    -49.390  0.0000E+00  0.0000E+00
    -49.182  0.0000E+00  0.0000E+00
    -48.975  0.0000E+00  0.0000E+00
    -48.768 -0.4497E-33 -0.9327E-34
    -48.560 -0.1681E-25 -0.3487E-26
    -48.353 -0.7164E-19 -0.1486E-19
    -48.145 -0.3392E-13 -0.7037E-14
    -47.938 -0.1867E-08 -0.3874E-09
    -47.730 -0.1146E-04 -0.2377E-05
    -47.523 -0.7574E-02 -0.1573E-02
    -47.316 -0.4697E+00 -0.9900E-01
    -47.108  0.3878E+00 -0.1855E-01
    -46.901  0.2683E+02  0.5547E+01
    -46.693  0.2939E+02  0.1164E+02
    -46.486  0.2381E+01  0.1214E+02
    -46.278 -0.6392E+00  0.1200E+02
    -46.071 -0.2172E-01  0.1200E+02
    -45.863 -0.6860E-04  0.1200E+02
    -45.656 -0.2357E-07  0.1200E+02
    -45.449 -0.9056E-12  0.1200E+02
    -45.241  0.0000E+00  0.1200E+02
    -45.034  0.0000E+00  0.1200E+02
    -44.826  0.0000E+00  0.1200E+02
    -44.619  0.0000E+00  0.1200E+02
    -44.411  0.0000E+00  0.1200E+02
    -44.204  0.0000E+00  0.1200E+02
    -43.997  0.0000E+00  0.1200E+02
    -43.789  0.0000E+00  0.1200E+02
    -43.582  0.0000E+00  0.1200E+02
    -43.374  0.0000E+00  0.1200E+02
    -43.167  0.0000E+00  0.1200E+02
    -42.959  0.0000E+00  0.1200E+02
    -42.752  0.0000E+00  0.1200E+02
    -42.545  0.0000E+00  0.1200E+02
    -42.337  0.0000E+00  0.1200E+02
    -42.130  0.0000E+00  0.1200E+02
    -41.922  0.0000E+00  0.1200E+02
    -41.715  0.0000E+00  0.1200E+02
    -41.507  0.0000E+00  0.1200E+02
    -41.300  0.0000E+00  0.1200E+02
    -41.093  0.0000E+00  0.1200E+02
    -40.885  0.0000E+00  0.1200E+02
    -40.678  0.0000E+00  0.1200E+02
    -40.470  0.0000E+00  0.1200E+02
    -40.263  0.0000E+00  0.1200E+02
    -40.055  0.0000E+00  0.1200E+02
    -39.848  0.0000E+00  0.1200E+02
    -39.640  0.0000E+00  0.1200E+02
    -39.433  0.0000E+00  0.1200E+02
    -39.226  0.0000E+00  0.1200E+02
    -39.018  0.0000E+00  0.1200E+02
    -38.811  0.0000E+00  0.1200E+02
    -38.603  0.0000E+00  0.1200E+02
    -38.396  0.0000E+00  0.1200E+02
    -38.188  0.0000E+00  0.1200E+02
    -37.981  0.0000E+00  0.1200E+02
    -37.774  0.0000E+00  0.1200E+02
    -37.566  0.0000E+00  0.1200E+02
    -37.359  0.0000E+00  0.1200E+02
    -37.151  0.0000E+00  0.1200E+02
    -36.944  0.0000E+00  0.1200E+02
    -36.736  0.0000E+00  0.1200E+02
    -36.529  0.0000E+00  0.1200E+02
    -36.322  0.0000E+00  0.1200E+02
    -36.114  0.0000E+00  0.1200E+02
    -35.907  0.0000E+00  0.1200E+02
    -35.699  0.0000E+00  0.1200E+02
    -35.492  0.0000E+00  0.1200E+02
    -35.284  0.0000E+00  0.1200E+02
    -35.077  0.0000E+00  0.1200E+02
    -34.870  0.0000E+00  0.1200E+02
    -34.662  0.0000E+00  0.1200E+02
    -34.455  0.0000E+00  0.1200E+02
    -34.247  0.0000E+00  0.1200E+02
    -34.040  0.0000E+00  0.1200E+02
    -33.832  0.0000E+00  0.1200E+02
    -33.625  0.0000E+00  0.1200E+02
    -33.417  0.0000E+00  0.1200E+02
    -33.210  0.0000E+00  0.1200E+02
    -33.003  0.0000E+00  0.1200E+02
    -32.795  0.0000E+00  0.1200E+02
    -32.588  0.0000E+00  0.1200E+02
    -32.380  0.0000E+00  0.1200E+02
    -32.173  0.0000E+00  0.1200E+02
    -31.965  0.0000E+00  0.1200E+02
    -31.758  0.0000E+00  0.1200E+02
    -31.551  0.0000E+00  0.1200E+02
    -31.343  0.0000E+00  0.1200E+02
    -31.136  0.0000E+00  0.1200E+02
    -30.928  0.0000E+00  0.1200E+02
    -30.721  0.0000E+00  0.1200E+02
    -30.513  0.0000E+00  0.1200E+02
    -30.306  0.0000E+00  0.1200E+02
    -30.099  0.0000E+00  0.1200E+02
    -29.891  0.0000E+00  0.1200E+02
    -29.684  0.0000E+00  0.1200E+02
    -29.476  0.0000E+00  0.1200E+02
    -29.269  0.0000E+00  0.1200E+02
    -29.061  0.0000E+00  0.1200E+02
    -28.854  0.0000E+00  0.1200E+02
    -28.647  0.0000E+00  0.1200E+02
    -28.439  0.0000E+00  0.1200E+02
    -28.232  0.0000E+00  0.1200E+02
    -28.024  0.0000E+00  0.1200E+02
    -27.817  0.0000E+00  0.1200E+02
    -27.609  0.0000E+00  0.1200E+02
    -27.402  0.0000E+00  0.1200E+02
    -27.194  0.0000E+00  0.1200E+02
    -26.987  0.0000E+00  0.1200E+02
    -26.780  0.0000E+00  0.1200E+02
    -26.572  0.0000E+00  0.1200E+02
    -26.365  0.0000E+00  0.1200E+02
    -26.157  0.0000E+00  0.1200E+02
    -25.950  0.0000E+00  0.1200E+02
    -25.742  0.0000E+00  0.1200E+02
    -25.535  0.0000E+00  0.1200E+02
    -25.328 -0.3521E-32  0.1200E+02
    -25.120 -0.9498E-25  0.1200E+02
    -24.913 -0.2929E-18  0.1200E+02
    -24.705 -0.9996E-13  0.1200E+02
    -24.498 -0.3927E-08  0.1200E+02
    -24.290 -0.1718E-04  0.1200E+02
    -24.083 -0.8085E-02  0.1200E+02
    -23.876 -0.3525E+00  0.1193E+02
    -23.668  0.8252E+00  0.1210E+02
    -23.461  0.1580E+02  0.1537E+02
    -23.253  0.2485E+02  0.2053E+02
    -23.046  0.5720E+02  0.3239E+02
    -22.838  0.4490E+02  0.4171E+02
    -22.631  0.2271E+02  0.4642E+02
    -22.424  0.7892E+01  0.4805E+02
    -22.216 -0.1103E+00  0.4803E+02
    -22.009 -0.1504E+00  0.4800E+02
    -21.801 -0.2260E-02  0.4800E+02
    -21.594 -0.3113E-05  0.4800E+02
    -21.386 -0.4509E-09  0.4800E+02
    -21.179 -0.7056E-14  0.4800E+02
    -20.971  0.0000E+00  0.4800E+02
    -20.764  0.0000E+00  0.4800E+02
    -20.557  0.0000E+00  0.4800E+02
    -20.349  0.0000E+00  0.4800E+02
    -20.142  0.0000E+00  0.4800E+02
    -19.934  0.0000E+00  0.4800E+02
    -19.727  0.0000E+00  0.4800E+02
    -19.519  0.0000E+00  0.4800E+02
    -19.312  0.0000E+00  0.4800E+02
    -19.105  0.0000E+00  0.4800E+02
    -18.897  0.0000E+00  0.4800E+02
    -18.690  0.0000E+00  0.4800E+02
    -18.482  0.0000E+00  0.4800E+02
    -18.275  0.0000E+00  0.4800E+02
    -18.067  0.0000E+00  0.4800E+02
    -17.860  0.0000E+00  0.4800E+02
    -17.653  0.0000E+00  0.4800E+02
    -17.445  0.0000E+00  0.4800E+02
    -17.238  0.0000E+00  0.4800E+02
    -17.030  0.0000E+00  0.4800E+02
    -16.823  0.0000E+00  0.4800E+02
    -16.615  0.0000E+00  0.4800E+02
    -16.408  0.0000E+00  0.4800E+02
    -16.201  0.0000E+00  0.4800E+02
    -15.993  0.0000E+00  0.4800E+02
    -15.786  0.0000E+00  0.4800E+02
    -15.578  0.0000E+00  0.4800E+02
    -15.371  0.0000E+00  0.4800E+02
    -15.163  0.0000E+00  0.4800E+02
    -14.956  0.0000E+00  0.4800E+02
    -14.748  0.0000E+00  0.4800E+02
    -14.541  0.0000E+00  0.4800E+02
    -14.334  0.0000E+00  0.4800E+02
    -14.126  0.0000E+00  0.4800E+02
    -13.919  0.0000E+00  0.4800E+02
    -13.711  0.0000E+00  0.4800E+02
    -13.504  0.0000E+00  0.4800E+02
    -13.296  0.0000E+00  0.4800E+02
    -13.089  0.0000E+00  0.4800E+02
    -12.882  0.0000E+00  0.4800E+02
    -12.674  0.0000E+00  0.4800E+02
    -12.467  0.0000E+00  0.4800E+02
    -12.259  0.0000E+00  0.4800E+02
    -12.052  0.0000E+00  0.4800E+02
    -11.844  0.0000E+00  0.4800E+02
    -11.637  0.0000E+00  0.4800E+02
    -11.430  0.0000E+00  0.4800E+02
    -11.222  0.0000E+00  0.4800E+02
    -11.015  0.0000E+00  0.4800E+02
    -10.807  0.0000E+00  0.4800E+02
    -10.600  0.0000E+00  0.4800E+02
    -10.392  0.0000E+00  0.4800E+02
    -10.185  0.0000E+00  0.4800E+02
     -9.978  0.0000E+00  0.4800E+02
     -9.770  0.0000E+00  0.4800E+02
     -9.563  0.0000E+00  0.4800E+02
     -9.355  0.0000E+00  0.4800E+02
     -9.148  0.0000E+00  0.4800E+02
     -8.940  0.0000E+00  0.4800E+02
     -8.733  0.0000E+00  0.4800E+02
     -8.525  0.0000E+00  0.4800E+02
     -8.318  0.0000E+00  0.4800E+02
     -8.111  0.0000E+00  0.4800E+02
     -7.903  0.0000E+00  0.4800E+02
     -7.696  0.0000E+00  0.4800E+02
     -7.488  0.0000E+00  0.4800E+02
     -7.281  0.0000E+00  0.4800E+02
     -7.073  0.0000E+00  0.4800E+02
     -6.866  0.0000E+00  0.4800E+02
     -6.659  0.0000E+00  0.4800E+02
     -6.451  0.0000E+00  0.4800E+02
     -6.244  0.0000E+00  0.4800E+02
     -6.036  0.0000E+00  0.4800E+02
     -5.829  0.0000E+00  0.4800E+02
     -5.621  0.0000E+00  0.4800E+02
     -5.414  0.0000E+00  0.4800E+02
     -5.207  0.0000E+00  0.4800E+02
     -4.999  0.0000E+00  0.4800E+02
     -4.792  0.0000E+00  0.4800E+02
     -4.584  0.0000E+00  0.4800E+02
     -4.377  0.0000E+00  0.4800E+02
     -4.169  0.0000E+00  0.4800E+02
     -3.962  0.0000E+00  0.4800E+02
     -3.755  0.0000E+00  0.4800E+02
     -3.547  0.0000E+00  0.4800E+02
     -3.340  0.0000E+00  0.4800E+02
     -3.132  0.0000E+00  0.4800E+02
     -2.925  0.0000E+00  0.4800E+02
     -2.717  0.0000E+00  0.4800E+02
     -2.510  0.0000E+00  0.4800E+02
     -2.302  0.0000E+00  0.4800E+02
     -2.095 -0.3230E-32  0.4800E+02
     -1.888 -0.4901E-25  0.4800E+02
     -1.680 -0.8500E-19  0.4800E+02
     -1.473 -0.1623E-13  0.4800E+02
     -1.265 -0.3579E-09  0.4800E+02
     -1.058 -0.8854E-06  0.4800E+02
     -0.850 -0.2461E-03  0.4800E+02
     -0.643 -0.7367E-02  0.4800E+02
     -0.436  0.6715E-02  0.4800E+02
     -0.228  0.3700E+00  0.4808E+02
     -0.021  0.1125E+01  0.4831E+02
      0.187  0.1637E+01  0.4865E+02
      0.394  0.1556E+01  0.4897E+02
      0.602  0.1942E+01  0.4938E+02
      0.809  0.2381E+01  0.4987E+02
      1.016  0.2805E+01  0.5045E+02
      1.224  0.2840E+01  0.5104E+02
      1.431  0.3356E+01  0.5174E+02
      1.639  0.4770E+01  0.5273E+02
      1.846  0.4265E+01  0.5361E+02
      2.054  0.3948E+01  0.5443E+02
      2.261  0.5852E+01  0.5564E+02
      2.468  0.9977E+01  0.5771E+02
      2.676  0.1471E+02  0.6076E+02
      2.883  0.1852E+02  0.6460E+02
      3.091  0.2202E+02  0.6917E+02
      3.298  0.2490E+02  0.7434E+02
      3.506  0.2835E+02  0.8022E+02
      3.713  0.3258E+02  0.8698E+02
      3.921  0.3225E+02  0.9367E+02
      4.128  0.3200E+02  0.1003E+03
      4.335  0.3037E+02  0.1066E+03
      4.543  0.2167E+02  0.1111E+03
      4.750  0.2039E+02  0.1153E+03
      4.958  0.3341E+02  0.1223E+03
      5.165  0.4304E+02  0.1312E+03
      5.373  0.4560E+02  0.1406E+03
      5.580  0.3977E+02  0.1489E+03
      5.787  0.3549E+02  0.1563E+03
      5.995  0.3529E+02  0.1636E+03
      6.202  0.3927E+02  0.1717E+03
      6.410  0.4372E+02  0.1808E+03
      6.617  0.4327E+02  0.1898E+03
      6.825  0.3896E+02  0.1979E+03
      7.032  0.3498E+02  0.2051E+03
      7.239  0.2994E+02  0.2113E+03
      7.447  0.2113E+02  0.2157E+03
      7.654  0.1505E+02  0.2188E+03
      7.862  0.1400E+02  0.2217E+03
      8.069  0.1305E+02  0.2244E+03
      8.277  0.1440E+02  0.2274E+03
      8.484  0.1693E+02  0.2309E+03
      8.691  0.2106E+02  0.2353E+03
      8.899  0.2546E+02  0.2406E+03
      9.106  0.2853E+02  0.2465E+03
      9.314  0.2736E+02  0.2522E+03
      9.521  0.1619E+02  0.2555E+03
      9.729  0.2628E+01  0.2561E+03
      9.936 -0.3578E+00  0.2560E+03
     10.144 -0.3412E-01  0.2560E+03
     10.351 -0.2935E-03  0.2560E+03
     10.558 -0.3038E-06  0.2560E+03
     10.766 -0.3856E-10  0.2560E+03
     10.973 -0.5823E-15  0.2560E+03
     11.181  0.0000E+00  0.2560E+03
     11.388  0.0000E+00  0.2560E+03
     11.596  0.0000E+00  0.2560E+03
     11.803  0.0000E+00  0.2560E+03
     12.010  0.0000E+00  0.2560E+03
     12.218  0.0000E+00  0.2560E+03
     12.425  0.0000E+00  0.2560E+03
