   30   30    1    1
  0.1607872E+02  0.6360000E-09  0.8261882E-09  0.1005604E-08  0.5000000E-15
  1.000000000000000E-004
  CAR 
 Nb - Mo - Ta - Ti - W SQS               
    204     63    128
 
  0.0000000E+00  0.0000000E+00  0.0000000E+00  0.8000000E-02
    1      -46.976094   1.000000
    2      -46.964236   1.000000
    3      -46.926095   1.000000
    4      -46.867475   1.000000
    5      -46.829225   1.000000
    6      -46.759272   1.000000
    7      -23.560570   1.000000
    8      -23.488022   1.000000
    9      -23.418290   1.000000
   10      -23.304442   1.000000
   11      -23.187466   1.000000
   12      -23.166260   1.000000
   13      -23.151949   1.000000
   14      -23.117491   1.000000
   15      -23.104845   1.000000
   16      -23.070336   1.000000
   17      -23.060088   1.000000
   18      -23.041636   1.000000
   19      -22.965909   1.000000
   20      -22.936813   1.000000
   21      -22.830120   1.000000
   22      -22.791948   1.000000
   23      -22.724939   1.000000
   24      -22.574687   1.000000
   25       -0.384714   1.000000
   26        1.546762   1.000000
   27        2.048122   1.000000
   28        2.188905   1.000000
   29        2.381231   1.000000
   30        2.462295   1.000000
   31        2.574963   1.000000
   32        2.679175   1.000000
   33        2.755290   1.000000
   34        2.912543   1.000000
   35        2.974340   1.000000
   36        3.083846   1.000000
   37        3.107727   1.000000
   38        3.148975   1.000000
   39        3.239366   1.000000
   40        3.342146   1.000000
   41        3.378351   1.000000
   42        3.439379   1.000000
   43        3.473215   1.000000
   44        3.515670   1.000000
   45        3.535569   1.000000
   46        3.587485   1.000000
   47        3.677268   1.000000
   48        3.771158   1.000000
   49        3.804853   1.000000
   50        3.891089   1.000000
   51        3.905255   1.000000
   52        3.964172   1.000000
   53        4.039919   1.000000
   54        4.249631   1.000000
   55        4.429414   1.000000
   56        4.520057   1.000000
   57        4.671235   1.000000
   58        4.693856   1.000000
   59        4.837799   1.000000
   60        4.903222   1.000000
   61        4.940476   1.000000
   62        4.971866   1.000000
   63        5.025942   1.000000
   64        5.071989   1.000000
   65        5.127183   1.000000
   66        5.151777   1.000000
   67        5.180111   1.000000
   68        5.219229   1.000000
   69        5.269896   1.000000
   70        5.306891   1.000000
   71        5.359944   1.000000
   72        5.381734   1.000000
   73        5.472542   1.000000
   74        5.540682   1.000000
   75        5.640925   1.000000
   76        5.674849   1.000000
   77        5.794444   1.000000
   78        5.884014   1.000000
   79        5.994770   1.000000
   80        6.022851   1.000000
   81        6.063014   1.000000
   82        6.303345   1.000005
   83        6.420042   1.000167
   84        6.457972   1.000444
   85        6.557335   1.003872
   86        6.610358   1.009600
   87        6.642230   1.015110
   88        6.709272   1.029920
   89        6.727088   1.033181
   90        6.773076   1.033832
   91        6.841395   0.986585
   92        6.866115   0.946350
   93        6.912343   0.830516
   94        6.928820   0.776795
   95        6.974364   0.602336
   96        7.001885   0.486729
   97        7.021076   0.406172
   98        7.053140   0.279015
   99        7.124673   0.067136
  100        7.254648  -0.035029
  101        7.296616  -0.028124
  102        7.337000  -0.018930
  103        7.356312  -0.014904
  104        7.371371  -0.012126
  105        7.447185  -0.003387
  106        7.498024  -0.001177
  107        7.520913  -0.000696
  108        7.583412  -0.000142
  109        7.718645  -0.000002
  110        7.802629  -0.000000
  111        7.905137  -0.000000
  112        7.944177  -0.000000
  113        7.991209  -0.000000
  114        8.048144  -0.000000
  115        8.067725  -0.000000
  116        8.209490  -0.000000
  117        8.364723  -0.000000
  118        8.488329  -0.000000
  119        8.541386  -0.000000
  120        8.677097  -0.000000
  121        8.688609  -0.000000
  122        8.691625  -0.000000
  123        8.714317  -0.000000
  124        8.765664  -0.000000
  125        8.801827  -0.000000
  126        8.892887  -0.000000
  127        8.915651  -0.000000
  128        8.986193  -0.000000
 
  0.2000000E+00 -0.1387779E-16  0.1387779E-16  0.1600000E-01
    1      -46.975752   1.000000
    2      -46.964435   1.000000
    3      -46.926075   1.000000
    4      -46.867471   1.000000
    5      -46.829284   1.000000
    6      -46.759273   1.000000
    7      -23.561892   1.000000
    8      -23.488058   1.000000
    9      -23.419664   1.000000
   10      -23.304537   1.000000
   11      -23.187773   1.000000
   12      -23.167040   1.000000
   13      -23.152949   1.000000
   14      -23.118354   1.000000
   15      -23.104789   1.000000
   16      -23.070085   1.000000
   17      -23.059879   1.000000
   18      -23.041512   1.000000
   19      -22.966135   1.000000
   20      -22.936657   1.000000
   21      -22.828976   1.000000
   22      -22.792652   1.000000
   23      -22.724876   1.000000
   24      -22.574568   1.000000
   25       -0.141908   1.000000
   26        1.531958   1.000000
   27        2.144614   1.000000
   28        2.278278   1.000000
   29        2.424557   1.000000
   30        2.528866   1.000000
   31        2.642655   1.000000
   32        2.814027   1.000000
   33        2.859998   1.000000
   34        2.920028   1.000000
   35        3.074334   1.000000
   36        3.108745   1.000000
   37        3.155914   1.000000
   38        3.246304   1.000000
   39        3.289522   1.000000
   40        3.370042   1.000000
   41        3.414352   1.000000
   42        3.479741   1.000000
   43        3.547476   1.000000
   44        3.576305   1.000000
   45        3.652333   1.000000
   46        3.677720   1.000000
   47        3.724134   1.000000
   48        3.869177   1.000000
   49        3.966948   1.000000
   50        4.015564   1.000000
   51        4.089130   1.000000
   52        4.184792   1.000000
   53        4.218052   1.000000
   54        4.259297   1.000000
   55        4.481131   1.000000
   56        4.654505   1.000000
   57        4.702746   1.000000
   58        4.757252   1.000000
   59        4.794967   1.000000
   60        4.835681   1.000000
   61        4.895162   1.000000
   62        4.935571   1.000000
   63        4.997472   1.000000
   64        5.074555   1.000000
   65        5.103090   1.000000
   66        5.160592   1.000000
   67        5.196926   1.000000
   68        5.238035   1.000000
   69        5.288795   1.000000
   70        5.326408   1.000000
   71        5.351078   1.000000
   72        5.412584   1.000000
   73        5.446901   1.000000
   74        5.497038   1.000000
   75        5.591268   1.000000
   76        5.667352   1.000000
   77        5.722680   1.000000
   78        5.818320   1.000000
   79        5.881716   1.000000
   80        5.947720   1.000000
   81        6.071144   1.000000
   82        6.107519   1.000000
   83        6.187529   1.000000
   84        6.251495   1.000001
   85        6.290977   1.000003
   86        6.335461   1.000014
   87        6.366799   1.000037
   88        6.414213   1.000143
   89        6.439853   1.000281
   90        6.503463   1.001286
   91        6.536657   1.002589
   92        6.594740   1.007489
   93        6.647435   1.016155
   94        6.680359   1.023438
   95        6.711007   1.030275
   96        6.789077   1.029445
   97        6.824380   1.006213
   98        6.853772   0.968261
   99        6.933830   0.759307
  100        6.970321   0.618949
  101        7.024397   0.392453
  102        7.130686   0.054996
  103        7.194283  -0.022652
  104        7.232789  -0.034965
  105        7.296439  -0.028163
  106        7.314551  -0.024037
  107        7.405451  -0.007163
  108        7.477467  -0.001838
  109        7.502563  -0.001063
  110        7.587348  -0.000128
  111        7.724853  -0.000002
  112        7.765274  -0.000000
  113        8.046469  -0.000000
  114        8.109998  -0.000000
  115        8.169913  -0.000000
  116        8.251323  -0.000000
  117        8.370904  -0.000000
  118        8.602497  -0.000000
  119        8.831005  -0.000000
  120        8.900929  -0.000000
  121        8.922666  -0.000000
  122        8.952796  -0.000000
  123        9.042403  -0.000000
  124        9.115051  -0.000000
  125        9.147931  -0.000000
  126        9.239989  -0.000000
  127        9.279551  -0.000000
  128        9.414379  -0.000000
 
  0.4000000E+00 -0.2775558E-16  0.2775558E-16  0.1600000E-01
    1      -46.975189   1.000000
    2      -46.964759   1.000000
    3      -46.926050   1.000000
    4      -46.867465   1.000000
    5      -46.829379   1.000000
    6      -46.759272   1.000000
    7      -23.563982   1.000000
    8      -23.488238   1.000000
    9      -23.421637   1.000000
   10      -23.304579   1.000000
   11      -23.188201   1.000000
   12      -23.168464   1.000000
   13      -23.154559   1.000000
   14      -23.119429   1.000000
   15      -23.104689   1.000000
   16      -23.069692   1.000000
   17      -23.059555   1.000000
   18      -23.041403   1.000000
   19      -22.966423   1.000000
   20      -22.936331   1.000000
   21      -22.827101   1.000000
   22      -22.793655   1.000000
   23      -22.724668   1.000000
   24      -22.574434   1.000000
   25        0.524136   1.000000
   26        1.522461   1.000000
   27        1.642838   1.000000
   28        2.176652   1.000000
   29        2.444583   1.000000
   30        2.724716   1.000000
   31        2.788723   1.000000
   32        2.955712   1.000000
   33        2.974673   1.000000
   34        3.093049   1.000000
   35        3.211510   1.000000
   36        3.378871   1.000000
   37        3.484643   1.000000
   38        3.519474   1.000000
   39        3.580851   1.000000
   40        3.617849   1.000000
   41        3.699089   1.000000
   42        3.738798   1.000000
   43        3.815125   1.000000
   44        3.863194   1.000000
   45        3.898468   1.000000
   46        3.973896   1.000000
   47        4.026056   1.000000
   48        4.053544   1.000000
   49        4.093107   1.000000
   50        4.136057   1.000000
   51        4.238898   1.000000
   52        4.268469   1.000000
   53        4.376369   1.000000
   54        4.418692   1.000000
   55        4.462506   1.000000
   56        4.547793   1.000000
   57        4.687008   1.000000
   58        4.702896   1.000000
   59        4.776270   1.000000
   60        4.838247   1.000000
   61        4.930541   1.000000
   62        4.942487   1.000000
   63        4.968047   1.000000
   64        5.028298   1.000000
   65        5.058755   1.000000
   66        5.116060   1.000000
   67        5.160650   1.000000
   68        5.183155   1.000000
   69        5.212954   1.000000
   70        5.250168   1.000000
   71        5.275049   1.000000
   72        5.325774   1.000000
   73        5.399668   1.000000
   74        5.418093   1.000000
   75        5.463856   1.000000
   76        5.545828   1.000000
   77        5.578231   1.000000
   78        5.608285   1.000000
   79        5.632542   1.000000
   80        5.695705   1.000000
   81        5.729497   1.000000
   82        5.823013   1.000000
   83        5.924283   1.000000
   84        5.981340   1.000000
   85        6.039723   1.000000
   86        6.119492   1.000000
   87        6.153687   1.000000
   88        6.204978   1.000000
   89        6.240795   1.000001
   90        6.264451   1.000001
   91        6.313392   1.000007
   92        6.340105   1.000017
   93        6.368817   1.000039
   94        6.426960   1.000201
   95        6.442787   1.000303
   96        6.480203   1.000758
   97        6.548439   1.003267
   98        6.582924   1.006140
   99        6.615282   1.010346
  100        6.655086   1.017757
  101        6.776499   1.033153
  102        6.804170   1.022081
  103        6.843262   0.984046
  104        6.905631   0.850616
  105        6.963175   0.647916
  106        6.983008   0.566376
  107        7.021607   0.403974
  108        7.047691   0.299624
  109        7.144036   0.031235
  110        7.287245  -0.030122
  111        7.322419  -0.022219
  112        7.436517  -0.004145
  113        7.810319  -0.000000
  114        7.986206  -0.000000
  115        8.334777  -0.000000
  116        8.516539  -0.000000
  117        8.761282  -0.000000
  118        8.856840  -0.000000
  119        8.875084  -0.000000
  120        8.949895  -0.000000
  121        9.070153  -0.000000
  122        9.136641  -0.000000
  123        9.204276  -0.000000
  124        9.245336  -0.000000
  125        9.337585  -0.000000
  126        9.414473  -0.000000
  127        9.490520  -0.000000
  128        9.532422  -0.000000
 
  0.0000000E+00  0.2000000E+00  0.0000000E+00  0.1600000E-01
    1      -46.975773   1.000000
    2      -46.964564   1.000000
    3      -46.926109   1.000000
    4      -46.867505   1.000000
    5      -46.829161   1.000000
    6      -46.759289   1.000000
    7      -23.560742   1.000000
    8      -23.487412   1.000000
    9      -23.417612   1.000000
   10      -23.306117   1.000000
   11      -23.187371   1.000000
   12      -23.166154   1.000000
   13      -23.152140   1.000000
   14      -23.117730   1.000000
   15      -23.104694   1.000000
   16      -23.070227   1.000000
   17      -23.060176   1.000000
   18      -23.041389   1.000000
   19      -22.966081   1.000000
   20      -22.936692   1.000000
   21      -22.829198   1.000000
   22      -22.792454   1.000000
   23      -22.724955   1.000000
   24      -22.575100   1.000000
   25       -0.249052   1.000000
   26        1.467614   1.000000
   27        1.763232   1.000000
   28        2.094808   1.000000
   29        2.289065   1.000000
   30        2.503177   1.000000
   31        2.562202   1.000000
   32        2.704748   1.000000
   33        2.805893   1.000000
   34        2.879500   1.000000
   35        2.912543   1.000000
   36        2.973694   1.000000
   37        3.067349   1.000000
   38        3.175405   1.000000
   39        3.253972   1.000000
   40        3.369652   1.000000
   41        3.376440   1.000000
   42        3.463187   1.000000
   43        3.506885   1.000000
   44        3.581418   1.000000
   45        3.684964   1.000000
   46        3.728397   1.000000
   47        3.792653   1.000000
   48        3.852900   1.000000
   49        3.868451   1.000000
   50        3.902032   1.000000
   51        4.001994   1.000000
   52        4.020830   1.000000
   53        4.112673   1.000000
   54        4.158572   1.000000
   55        4.326322   1.000000
   56        4.497455   1.000000
   57        4.683370   1.000000
   58        4.727976   1.000000
   59        4.824321   1.000000
   60        4.853771   1.000000
   61        4.881093   1.000000
   62        4.931293   1.000000
   63        4.995351   1.000000
   64        5.067438   1.000000
   65        5.088844   1.000000
   66        5.180974   1.000000
   67        5.208769   1.000000
   68        5.238864   1.000000
   69        5.287586   1.000000
   70        5.311437   1.000000
   71        5.386529   1.000000
   72        5.432851   1.000000
   73        5.499863   1.000000
   74        5.541968   1.000000
   75        5.572815   1.000000
   76        5.696440   1.000000
   77        5.776557   1.000000
   78        5.852015   1.000000
   79        5.930870   1.000000
   80        5.954889   1.000000
   81        6.132525   1.000000
   82        6.285298   1.000003
   83        6.363919   1.000034
   84        6.404257   1.000109
   85        6.413330   1.000140
   86        6.451868   1.000381
   87        6.513398   1.001596
   88        6.555387   1.003732
   89        6.618425   1.010842
   90        6.690900   1.025873
   91        6.730767   1.033719
   92        6.807346   1.020072
   93        6.984333   0.560821
   94        7.020010   0.410595
   95        7.046749   0.303233
   96        7.067747   0.226414
   97        7.147424   0.025888
   98        7.165149   0.002212
   99        7.208629  -0.029523
  100        7.269392  -0.033336
  101        7.324365  -0.021772
  102        7.356285  -0.014909
  103        7.398626  -0.008010
  104        7.423884  -0.005216
  105        7.475428  -0.001919
  106        7.515048  -0.000798
  107        7.582558  -0.000146
  108        7.622095  -0.000048
  109        7.661167  -0.000015
  110        7.748374  -0.000001
  111        7.769114  -0.000000
  112        7.869071  -0.000000
  113        7.932297  -0.000000
  114        8.225143  -0.000000
  115        8.353615  -0.000000
  116        8.436632  -0.000000
  117        8.468725  -0.000000
  118        8.529838  -0.000000
  119        8.595434  -0.000000
  120        8.636693  -0.000000
  121        8.707903  -0.000000
  122        8.735135  -0.000000
  123        8.815843  -0.000000
  124        8.829225  -0.000000
  125        8.891714  -0.000000
  126        9.022208  -0.000000
  127        9.091920  -0.000000
  128        9.238798  -0.000000
 
  0.2000000E+00  0.2000000E+00  0.1387779E-16  0.1600000E-01
    1      -46.975659   1.000000
    2      -46.964532   1.000000
    3      -46.926065   1.000000
    4      -46.867474   1.000000
    5      -46.829287   1.000000
    6      -46.759273   1.000000
    7      -23.561105   1.000000
    8      -23.487917   1.000000
    9      -23.419553   1.000000
   10      -23.306095   1.000000
   11      -23.187716   1.000000
   12      -23.166846   1.000000
   13      -23.153085   1.000000
   14      -23.118165   1.000000
   15      -23.104857   1.000000
   16      -23.070064   1.000000
   17      -23.059907   1.000000
   18      -23.041275   1.000000
   19      -22.966177   1.000000
   20      -22.936749   1.000000
   21      -22.828348   1.000000
   22      -22.792505   1.000000
   23      -22.724919   1.000000
   24      -22.574852   1.000000
   25       -0.061853   1.000000
   26        1.463052   1.000000
   27        1.904131   1.000000
   28        2.341912   1.000000
   29        2.549534   1.000000
   30        2.616955   1.000000
   31        2.676887   1.000000
   32        2.774182   1.000000
   33        2.900946   1.000000
   34        2.921846   1.000000
   35        3.025574   1.000000
   36        3.097088   1.000000
   37        3.128913   1.000000
   38        3.202178   1.000000
   39        3.289185   1.000000
   40        3.316502   1.000000
   41        3.413511   1.000000
   42        3.461294   1.000000
   43        3.533178   1.000000
   44        3.609647   1.000000
   45        3.689765   1.000000
   46        3.740769   1.000000
   47        3.807249   1.000000
   48        3.823178   1.000000
   49        3.926703   1.000000
   50        3.987721   1.000000
   51        4.083029   1.000000
   52        4.153447   1.000000
   53        4.222038   1.000000
   54        4.289021   1.000000
   55        4.515236   1.000000
   56        4.535112   1.000000
   57        4.668343   1.000000
   58        4.750710   1.000000
   59        4.796573   1.000000
   60        4.887701   1.000000
   61        4.925068   1.000000
   62        4.963012   1.000000
   63        4.982283   1.000000
   64        5.039672   1.000000
   65        5.079050   1.000000
   66        5.143224   1.000000
   67        5.194059   1.000000
   68        5.211867   1.000000
   69        5.239185   1.000000
   70        5.317942   1.000000
   71        5.406089   1.000000
   72        5.425206   1.000000
   73        5.454241   1.000000
   74        5.557524   1.000000
   75        5.598449   1.000000
   76        5.675739   1.000000
   77        5.737612   1.000000
   78        5.852407   1.000000
   79        5.886972   1.000000
   80        5.930577   1.000000
   81        5.984846   1.000000
   82        6.033406   1.000000
   83        6.110600   1.000000
   84        6.187834   1.000000
   85        6.272384   1.000002
   86        6.309856   1.000006
   87        6.353768   1.000025
   88        6.417826   1.000158
   89        6.499800   1.001185
   90        6.530867   1.002302
   91        6.590585   1.006991
   92        6.627103   1.012296
   93        6.650915   1.016875
   94        6.710317   1.030135
   95        6.764180   1.035013
   96        6.822807   1.007723
   97        6.856737   0.963336
   98        6.897009   0.874836
   99        6.921136   0.802595
  100        6.970514   0.618161
  101        7.008908   0.457073
  102        7.075288   0.200930
  103        7.149633   0.022548
  104        7.184200  -0.015839
  105        7.258333  -0.034712
  106        7.311077  -0.024841
  107        7.411588  -0.006461
  108        7.525500  -0.000624
  109        7.620398  -0.000050
  110        7.686761  -0.000006
  111        7.752705  -0.000001
  112        7.886195  -0.000000
  113        8.051748  -0.000000
  114        8.113933  -0.000000
  115        8.288922  -0.000000
  116        8.419181  -0.000000
  117        8.482910  -0.000000
  118        8.601547  -0.000000
  119        8.668679  -0.000000
  120        8.720703  -0.000000
  121        8.739794  -0.000000
  122        8.782023  -0.000000
  123        8.935860  -0.000000
  124        8.993922  -0.000000
  125        9.139487  -0.000000
  126        9.222855  -0.000000
  127        9.368460  -0.000000
  128        9.399914  -0.000000
 
  0.4000000E+00  0.2000000E+00  0.2775558E-16  0.1600000E-01
    1      -46.975172   1.000000
    2      -46.964783   1.000000
    3      -46.926027   1.000000
    4      -46.867462   1.000000
    5      -46.829401   1.000000
    6      -46.759269   1.000000
    7      -23.562916   1.000000
    8      -23.488220   1.000000
    9      -23.421812   1.000000
   10      -23.306239   1.000000
   11      -23.188255   1.000000
   12      -23.168173   1.000000
   13      -23.154627   1.000000
   14      -23.119359   1.000000
   15      -23.104846   1.000000
   16      -23.069731   1.000000
   17      -23.059606   1.000000
   18      -23.041062   1.000000
   19      -22.966426   1.000000
   20      -22.936543   1.000000
   21      -22.826646   1.000000
   22      -22.793386   1.000000
   23      -22.724772   1.000000
   24      -22.574667   1.000000
   25        0.549012   1.000000
   26        1.514170   1.000000
   27        1.716964   1.000000
   28        2.308003   1.000000
   29        2.452748   1.000000
   30        2.582118   1.000000
   31        2.853425   1.000000
   32        2.959437   1.000000
   33        3.036191   1.000000
   34        3.123270   1.000000
   35        3.216415   1.000000
   36        3.391214   1.000000
   37        3.444872   1.000000
   38        3.491567   1.000000
   39        3.558092   1.000000
   40        3.603909   1.000000
   41        3.642305   1.000000
   42        3.682853   1.000000
   43        3.710964   1.000000
   44        3.756818   1.000000
   45        3.856625   1.000000
   46        3.891544   1.000000
   47        3.940321   1.000000
   48        4.001062   1.000000
   49        4.098547   1.000000
   50        4.132730   1.000000
   51        4.216717   1.000000
   52        4.244322   1.000000
   53        4.276233   1.000000
   54        4.354280   1.000000
   55        4.426439   1.000000
   56        4.504003   1.000000
   57        4.637932   1.000000
   58        4.748356   1.000000
   59        4.813092   1.000000
   60        4.883426   1.000000
   61        4.922927   1.000000
   62        4.975067   1.000000
   63        5.027492   1.000000
   64        5.069248   1.000000
   65        5.121294   1.000000
   66        5.158124   1.000000
   67        5.214458   1.000000
   68        5.234263   1.000000
   69        5.295355   1.000000
   70        5.301716   1.000000
   71        5.361405   1.000000
   72        5.415903   1.000000
   73        5.440371   1.000000
   74        5.524205   1.000000
   75        5.549906   1.000000
   76        5.600914   1.000000
   77        5.623928   1.000000
   78        5.658773   1.000000
   79        5.725330   1.000000
   80        5.791553   1.000000
   81        5.816099   1.000000
   82        5.851631   1.000000
   83        5.917765   1.000000
   84        5.947315   1.000000
   85        5.968886   1.000000
   86        6.014553   1.000000
   87        6.054193   1.000000
   88        6.128519   1.000000
   89        6.172644   1.000000
   90        6.210284   1.000000
   91        6.253678   1.000001
   92        6.290070   1.000003
   93        6.325740   1.000010
   94        6.362948   1.000033
   95        6.394288   1.000082
   96        6.433367   1.000238
   97        6.506425   1.001372
   98        6.533003   1.002405
   99        6.566455   1.004585
  100        6.599467   1.008088
  101        6.660803   1.018997
  102        6.711808   1.030437
  103        6.759787   1.035314
  104        6.820234   1.010090
  105        6.904905   0.852725
  106        6.962357   0.651194
  107        7.066305   0.231419
  108        7.080273   0.184765
  109        7.151957   0.019157
  110        7.383844  -0.010095
  111        7.475989  -0.001896
  112        7.653536  -0.000019
  113        7.957715  -0.000000
  114        8.232707  -0.000000
  115        8.476860  -0.000000
  116        8.607628  -0.000000
  117        8.730938  -0.000000
  118        8.794706  -0.000000
  119        8.831517  -0.000000
  120        8.993082  -0.000000
  121        9.055519  -0.000000
  122        9.076029  -0.000000
  123        9.156561  -0.000000
  124        9.214169  -0.000000
  125        9.279978  -0.000000
  126        9.323851  -0.000000
  127        9.378682  -0.000000
  128        9.484136  -0.000000
 
 -0.4000000E+00  0.2000000E+00 -0.2775558E-16  0.1600000E-01
    1      -46.974977   1.000000
    2      -46.964973   1.000000
    3      -46.926052   1.000000
    4      -46.867481   1.000000
    5      -46.829346   1.000000
    6      -46.759282   1.000000
    7      -23.563620   1.000000
    8      -23.487872   1.000000
    9      -23.421193   1.000000
   10      -23.306318   1.000000
   11      -23.188187   1.000000
   12      -23.168279   1.000000
   13      -23.154638   1.000000
   14      -23.119404   1.000000
   15      -23.104622   1.000000
   16      -23.069643   1.000000
   17      -23.059677   1.000000
   18      -23.041172   1.000000
   19      -22.966444   1.000000
   20      -22.936314   1.000000
   21      -22.826395   1.000000
   22      -22.793767   1.000000
   23      -22.724738   1.000000
   24      -22.574724   1.000000
   25        0.716437   1.000000
   26        1.474248   1.000000
   27        1.623449   1.000000
   28        2.098063   1.000000
   29        2.263023   1.000000
   30        2.669006   1.000000
   31        2.758850   1.000000
   32        2.904607   1.000000
   33        3.060420   1.000000
   34        3.119069   1.000000
   35        3.257898   1.000000
   36        3.287544   1.000000
   37        3.389152   1.000000
   38        3.439630   1.000000
   39        3.537151   1.000000
   40        3.580334   1.000000
   41        3.661106   1.000000
   42        3.709564   1.000000
   43        3.822425   1.000000
   44        3.897238   1.000000
   45        3.984723   1.000000
   46        3.988393   1.000000
   47        4.058583   1.000000
   48        4.070530   1.000000
   49        4.151450   1.000000
   50        4.196061   1.000000
   51        4.261574   1.000000
   52        4.326668   1.000000
   53        4.388792   1.000000
   54        4.469157   1.000000
   55        4.516435   1.000000
   56        4.571248   1.000000
   57        4.679718   1.000000
   58        4.749276   1.000000
   59        4.831618   1.000000
   60        4.868301   1.000000
   61        4.919668   1.000000
   62        4.956983   1.000000
   63        5.000888   1.000000
   64        5.050656   1.000000
   65        5.068134   1.000000
   66        5.098376   1.000000
   67        5.118431   1.000000
   68        5.172134   1.000000
   69        5.212222   1.000000
   70        5.247381   1.000000
   71        5.276568   1.000000
   72        5.323877   1.000000
   73        5.367894   1.000000
   74        5.442957   1.000000
   75        5.479957   1.000000
   76        5.526493   1.000000
   77        5.590474   1.000000
   78        5.678175   1.000000
   79        5.707602   1.000000
   80        5.761904   1.000000
   81        5.775313   1.000000
   82        5.835997   1.000000
   83        5.901032   1.000000
   84        5.946965   1.000000
   85        6.001829   1.000000
   86        6.027267   1.000000
   87        6.071586   1.000000
   88        6.138663   1.000000
   89        6.196325   1.000000
   90        6.242348   1.000001
   91        6.273813   1.000002
   92        6.313642   1.000007
   93        6.376314   1.000049
   94        6.395422   1.000085
   95        6.423943   1.000186
   96        6.492824   1.001013
   97        6.549291   1.003321
   98        6.590633   1.006997
   99        6.646316   1.015927
  100        6.687147   1.025009
  101        6.706255   1.029288
  102        6.758952   1.035352
  103        6.809230   1.018799
  104        6.860073   0.957541
  105        6.921049   0.802879
  106        6.963212   0.647766
  107        7.022028   0.402231
  108        7.043422   0.316097
  109        7.086797   0.164464
  110        7.181859  -0.013999
  111        7.307107  -0.025756
  112        7.382178  -0.010352
  113        7.925900  -0.000000
  114        8.348469  -0.000000
  115        8.481845  -0.000000
  116        8.721543  -0.000000
  117        8.744811  -0.000000
  118        8.882610  -0.000000
  119        8.935538  -0.000000
  120        8.984481  -0.000000
  121        9.098978  -0.000000