 vasp.5.4.4.18Apr17-6-g9f103f2a35 (build Aug 09 2018 16:20:53) complex          
  
 executed on             LinuxIFC date 2020.04.12  14:10:29
 running on   32 total cores
 distrk:  each k-point on   32 cores,    1 groups
 distr:  one band on NCORES_PER_BAND=   4 cores,    8 groups


--------------------------------------------------------------------------------------------------------


 INCAR:
 POTCAR:    PAW_PBE Nb_sv 25May2007               
 POTCAR:    PAW_PBE Mo 08Apr2002                  
 POTCAR:    PAW_PBE Ta 17Jan2003                  
 POTCAR:    PAW_PBE Ti 08Apr2002                  
 POTCAR:    PAW_PBE W 08Apr2002                   
 POTCAR:    PAW_PBE Nb_sv 25May2007               
   VRHFIN =Nb: 4p5s4d                                                           
   LEXCH  = PE                                                                  
   EATOM  =  1555.1913 eV,  114.3033 Ry                                         
                                                                                
   TITEL  = PAW_PBE Nb_sv 25May2007                                             
   LULTRA =        F    use ultrasoft PP ?                                      
   IUNSCR =        1    unscreen: 0-lin 1-nonlin 2-no                           
   RPACOR =    1.800    partial core radius                                     
   POMASS =   92.910; ZVAL   =   13.000    mass and valenz                      
   RCORE  =    2.400    outmost cutoff radius                                   
   RWIGS  =    2.400; RWIGS  =    1.270    wigner-seitz radius (au A)           
   ENMAX  =  293.235; ENMIN  =  219.927 eV                                      
   ICORE  =        3    local potential                                         
   LCOR   =        T    correct aug charges                                     
   LPAW   =        T    paw PP                                                  
   EAUG   =  455.659                                                            
   DEXC   =    0.000                                                            
   RMAX   =    2.456    core radius for proj-oper                               
   RAUG   =    1.300    factor for augmentation sphere                          
   RDEP   =    2.451    radius for radial grids                                 
   RDEPT  =    1.956    core radius for aug-charge                              
                                                                                
   Atomic configuration                                                         
   11 entries                                                                   
     n  l   j            E        occ.                                          
     1  0  0.50    -18805.2457   2.0000                                         
     2  0  0.50     -2630.2869   2.0000                                         
     2  1  1.50     -2348.4046   6.0000                                         
     3  0  0.50      -438.8757   2.0000                                         
     3  1  1.50      -346.7588   6.0000                                         
     3  2  2.50      -196.2560  10.0000                                         
     4  0  0.50       -58.3859   2.0000                                         
     5  0  0.50        -3.9816   1.0000                                         
     4  1  1.50       -34.5141   6.0000                                         
     4  2  2.50        -3.0408   4.0000                                         
     4  3  2.50        -1.3606   0.0000                                         
   Description                                                                  
     l       E           TYP  RCUT    TYP  RCUT                                 
     0    -58.3859094     23  2.200                                             
     0     -3.9816262     23  2.200                                             
     1    -34.5140738     23  2.200                                             
     1     13.6058260     23  2.200                                             
     2     -3.0408010     23  2.200                                             
     2     -0.1283038     23  2.200                                             
     3     -1.3605826     23  2.400                                             
  local pseudopotential read in
  partial core-charges read in
  partial kinetic energy density read in
  atomic valenz-charges read in
  non local Contribution for L=           0  read in
    real space projection operators read in
  non local Contribution for L=           0  read in
    real space projection operators read in
  non local Contribution for L=           1  read in
    real space projection operators read in
  non local Contribution for L=           1  read in
    real space projection operators read in
  non local Contribution for L=           2  read in
    real space projection operators read in
  non local Contribution for L=           2  read in
    real space projection operators read in
    PAW grid and wavefunctions read in
 
   number of l-projection  operators is LMAX  =           6
   number of lm-projection operators is LMMAX =          18
 
 POTCAR:    PAW_PBE Mo 08Apr2002                  
   VRHFIN =Mo: 4p5s4d                                                           
   LEXCH  = PE                                                                  
   EATOM  =   217.5176 eV,   15.9871 Ry                                         
                                                                                
   TITEL  = PAW_PBE Mo 08Apr2002                                                
   LULTRA =        F    use ultrasoft PP ?                                      
   IUNSCR =        1    unscreen: 0-lin 1-nonlin 2-no                           
   RPACOR =    2.200    partial core radius                                     
   POMASS =   95.940; ZVAL   =    6.000    mass and valenz                      
   RCORE  =    2.750    outmost cutoff radius                                   
   RWIGS  =    2.750; RWIGS  =    1.455    wigner-seitz radius (au A)           
   ENMAX  =  224.584; ENMIN  =  168.438 eV                                      
   RCLOC  =    2.111    cutoff for local pot                                    
   LCOR   =        T    correct aug charges                                     
   LPAW   =        T    paw PP                                                  
   EAUG   =  345.278                                                            
   DEXC   =    0.000                                                            
   RMAX   =    2.821    core radius for proj-oper                               
   RAUG   =    1.300    factor for augmentation sphere                          
   RDEP   =    2.815    radius for radial grids                                 
   RDEPT  =    2.211    core radius for aug-charge                              
                                                                                
   Atomic configuration                                                         
   12 entries                                                                   
     n  l   j            E        occ.                                          
     1  0  0.50    -19819.0341   2.0000                                         
     2  0  0.50     -2799.0127   2.0000                                         
     2  1  1.50     -2502.0276   6.0000                                         
     3  0  0.50      -476.4448   2.0000                                         
     3  1  1.50      -379.1496   6.0000                                         
     3  2  2.50      -220.9367  10.0000                                         
     4  0  0.50       -64.3378   2.0000                                         
     4  1  1.50       -38.4773   6.0000                                         
     4  2  2.50        -3.7535   5.0000                                         
     5  0  0.50        -4.0862   1.0000                                         
     5  1  0.50        -2.7701   0.0000                                         
     4  3  2.50        -1.3606   0.0000                                         
   Description                                                                  
     l       E           TYP  RCUT    TYP  RCUT                                 
     2     -3.7534765     23  2.500                                             
     2     -5.1140591     23  2.500                                             
     0     -4.0861560     23  2.600                                             
     0     13.6058260     23  2.600                                             
     1      5.4423304     23  2.750                                             
     1     27.2116520     23  2.750                                             
  local pseudopotential read in
  partial core-charges read in
  partial kinetic energy density read in
  atomic valenz-charges read in
  non local Contribution for L=           2  read in
    real space projection operators read in
  non local Contribution for L=           2  read in
    real space projection operators read in
  non local Contribution for L=           0  read in
    real space projection operators read in
  non local Contribution for L=           0  read in
    real space projection operators read in
  non local Contribution for L=           1  read in
    real space projection operators read in
  non local Contribution for L=           1  read in
    real space projection operators read in
    PAW grid and wavefunctions read in
 
   number of l-projection  operators is LMAX  =           6
   number of lm-projection operators is LMMAX =          18
 
 POTCAR:    PAW_PBE Ta 17Jan2003                  
   VRHFIN =Ta:  6s5d                                                            
   LEXCH  = PE                                                                  
   EATOM  =   130.6506 eV,    9.6025 Ry                                         
                                                                                
   TITEL  = PAW_PBE Ta 17Jan2003                                                
   LULTRA =        F    use ultrasoft PP ?                                      
   IUNSCR =        1    unscreen: 0-lin 1-nonlin 2-no                           
   RPACOR =    2.330    partial core radius                                     
   POMASS =  180.948; ZVAL   =    5.000    mass and valenz                      
   RCORE  =    2.900    outmost cutoff radius                                   
   RWIGS  =    2.840; RWIGS  =    1.503    wigner-seitz radius (au A)           
   ENMAX  =  223.667; ENMIN  =  167.750 eV                                      
   RCLOC  =    2.205    cutoff for local pot                                    
   LCOR   =        T    correct aug charges                                     
   LPAW   =        T    paw PP                                                  
   EAUG   =  332.075                                                            
   DEXC   =    0.000                                                            
   RMAX   =    2.970    core radius for proj-oper                               
   RAUG   =    1.300    factor for augmentation sphere                          
   RDEP   =    3.060    radius for radial grids                                 
   RDEPT  =    2.354    core radius for aug-charge                              
                                                                                
   Atomic configuration                                                         
   16 entries                                                                   
     n  l   j            E        occ.                                          
     1  0  0.50    -67341.2807   2.0000                                         
     2  0  0.50    -11566.9376   2.0000                                         
     2  1  1.50    -10134.1182   6.0000                                         
     3  0  0.50     -2648.5620   2.0000                                         
     3  1  1.50     -2222.6012   6.0000                                         
     3  2  2.50     -1726.3120  10.0000                                         
     4  0  0.50      -538.6961   2.0000                                         
     4  1  1.50      -399.0129   6.0000                                         
     4  2  2.50      -220.3959  10.0000                                         
     4  3  3.50       -23.0374  14.0000                                         
     5  0  0.50       -71.2901   2.0000                                         
     5  1  1.50       -37.8225   6.0000                                         
     5  2  2.50        -2.6455   4.0000                                         
     6  0  0.50        -4.9623   1.0000                                         
     6  1  1.50        -1.3606   0.0000                                         
     5  3  2.50        -1.3606   0.0000                                         
   Description                                                                  
     l       E           TYP  RCUT    TYP  RCUT                                 
     2     -2.6455043     23  2.500                                             
     2     -0.6258895     23  2.500                                             
     0     -4.9622780     23  2.500                                             
     0      4.7531321     23  2.500                                             
     1     -1.3605826     23  2.900                                             
     1     27.2116520     23  2.900                                             
  local pseudopotential read in
  partial core-charges read in
  partial kinetic energy density read in
  atomic valenz-charges read in
  non local Contribution for L=           2  read in
    real space projection operators read in
  non local Contribution for L=           2  read in
    real space projection operators read in
  non local Contribution for L=           0  read in
    real space projection operators read in
  non local Contribution for L=           0  read in
    real space projection operators read in
  non local Contribution for L=           1  read in
    real space projection operators read in
  non local Contribution for L=           1  read in
    real space projection operators read in
    PAW grid and wavefunctions read in
 
   number of l-projection  operators is LMAX  =           6
   number of lm-projection operators is LMMAX =          18
 
 POTCAR:    PAW_PBE Ti 08Apr2002                  
   VRHFIN =Ti: d3 s1                                                            
   LEXCH  = PE                                                                  
   EATOM  =    94.7928 eV,    6.9671 Ry                                         
                                                                                
   TITEL  = PAW_PBE Ti 08Apr2002                                                
   LULTRA =        F    use ultrasoft PP ?                                      
   IUNSCR =        1    unscreen: 0-lin 1-nonlin 2-no                           
   RPACOR =    2.200    partial core radius                                     
   POMASS =   47.880; ZVAL   =    4.000    mass and valenz                      
   RCORE  =    2.800    outmost cutoff radius                                   
   RWIGS  =    2.500; RWIGS  =    1.323    wigner-seitz radius (au A)           
   ENMAX  =  178.330; ENMIN  =  133.747 eV                                      
   RCLOC  =    2.215    cutoff for local pot                                    
   LCOR   =        T    correct aug charges                                     
   LPAW   =        T    paw PP                                                  
   EAUG   =  328.883                                                            
   DEXC   =    0.000                                                            
   RMAX   =    2.868    core radius for proj-oper                               
   RAUG   =    1.300    factor for augmentation sphere                          
   RDEP   =    2.885    radius for radial grids                                 
   RDEPT  =    2.320    core radius for aug-charge                              
                                                                                
   Atomic configuration                                                         
    9 entries                                                                   
     n  l   j            E        occ.                                          
     1  0  0.50     -4865.3608   2.0000                                         
     2  0  0.50      -533.1367   2.0000                                         
     2  1  1.50      -440.5031   6.0000                                         
     3  0  0.50       -59.3186   2.0000                                         
     3  1  1.50       -35.7012   6.0000                                         
     3  2  2.50        -1.9157   3.0000                                         
     4  0  0.50        -3.7291   1.0000                                         
     4  1  1.50        -4.0817   0.0000                                         
     4  3  2.50        -1.3606   0.0000                                         
   Description                                                                  
     l       E           TYP  RCUT    TYP  RCUT                                 
     2     -1.9156924     23  2.800                                             
     2     -0.4062961     23  2.800                                             
     0     -3.7290832     23  2.800                                             
     0     20.4087390     23  2.800                                             
     1     -5.4423304     23  2.800                                             
  local pseudopotential read in
  partial core-charges read in
  partial kinetic energy density read in
  atomic valenz-charges read in
  non local Contribution for L=           2  read in
    real space projection operators read in
  non local Contribution for L=           2  read in
    real space projection operators read in
  non local Contribution for L=           0  read in
    real space projection operators read in
  non local Contribution for L=           0  read in
    real space projection operators read in
  non local Contribution for L=           1  read in
    real space projection operators read in
    PAW grid and wavefunctions read in
 
   number of l-projection  operators is LMAX  =           5
   number of lm-projection operators is LMMAX =          15
 
 POTCAR:    PAW_PBE W 08Apr2002                   
   VRHFIN =W : 6s5d                                                             
   LEXCH  = PE                                                                  
   EATOM  =   204.6103 eV,   15.0384 Ry                                         
                                                                                
   TITEL  = PAW_PBE W 08Apr2002                                                 
   LULTRA =        F    use ultrasoft PP ?                                      
   IUNSCR =        1    unscreen: 0-lin 1-nonlin 2-no                           
   RPACOR =    2.330    partial core radius                                     
   POMASS =  183.850; ZVAL   =    6.000    mass and valenz                      
   RCORE  =    2.750    outmost cutoff radius                                   
   RWIGS  =    2.750; RWIGS  =    1.455    wigner-seitz radius (au A)           
   ENMAX  =  223.057; ENMIN  =  167.293 eV                                      
   RCLOC  =    2.147    cutoff for local pot                                    
   LCOR   =        T    correct aug charges                                     
   LPAW   =        T    paw PP                                                  
   EAUG   =  373.438                                                            
   DEXC   =    0.000                                                            
   RMAX   =    2.801    core radius for proj-oper                               
   RAUG   =    1.300    factor for augmentation sphere                          
   RDEP   =    2.886    radius for radial grids                                 
   RDEPT  =    2.230    core radius for aug-charge                              
                                                                                
   Atomic configuration                                                         
   16 entries                                                                   
     n  l   j            E        occ.                                          
     1  0  0.50    -69465.5836   2.0000                                         
     2  0  0.50    -11986.2642   2.0000                                         
     2  1  1.50    -10479.8616   6.0000                                         
     3  0  0.50     -2759.0758   2.0000                                         
     3  1  1.50     -2313.1857   6.0000                                         
     3  2  2.50     -1801.1185  10.0000                                         
     4  0  0.50      -567.6791   2.0000                                         
     4  1  1.50      -421.4694   6.0000                                         
     4  2  2.50      -236.3473  10.0000                                         
     4  3  3.50       -31.2666  14.0000                                         
     5  0  0.50       -77.1085   2.0000                                         
     5  1  1.50       -41.3856   6.0000                                         
     5  2  2.50        -3.3185   5.0000                                         
     6  0  0.50        -5.1438   1.0000                                         
     6  1  0.50        -3.8096   0.0000                                         
     5  3  2.50        -1.3606   0.0000                                         
   Description                                                                  
     l       E           TYP  RCUT    TYP  RCUT                                 
     2     -3.3185288     23  2.500                                             
     2     -1.5965414     23  2.500                                             
     0     -5.1438054     23  2.500                                             
     0      4.9117504     23  2.500                                             
     1      2.7211652     23  2.750                                             
     1     27.2116520     23  2.750                                             
  local pseudopotential read in
  partial core-charges read in
  partial kinetic energy density read in
  atomic valenz-charges read in
  non local Contribution for L=           2  read in
    real space projection operators read in
  non local Contribution for L=           2  read in
    real space projection operators read in
  non local Contribution for L=           0  read in
    real space projection operators read in
  non local Contribution for L=           0  read in
    real space projection operators read in
  non local Contribution for L=           1  read in
    real space projection operators read in
  non local Contribution for L=           1  read in
    real space projection operators read in
    PAW grid and wavefunctions read in
 
   number of l-projection  operators is LMAX  =           6
   number of lm-projection operators is LMMAX =          18
 
 Optimization of the real space projectors (new method)

 maximal supplied QI-value         = 15.68
 optimisation between [QCUT,QGAM] = [ 10.20, 20.39] = [ 29.11,116.42] Ry 
 Optimized for a Real-space Cutoff    1.60 Angstroem

   l    n(q)    QCUT    max X(q) W(low)/X(q) W(high)/X(q)  e(spline) 
   0     10    10.195    10.201    0.19E-04    0.50E-05    0.39E-07
   0     10    10.195     8.174    0.27E-04    0.89E-05    0.77E-07
   1      9    10.195     3.488    0.83E-04    0.69E-04    0.10E-06
   1      9    10.195     4.917    0.46E-03    0.32E-03    0.50E-06
   2      9    10.195   153.744    0.18E-03    0.91E-03    0.79E-06
   2      9    10.195   126.342    0.18E-03    0.90E-03    0.79E-06
 Optimization of the real space projectors (new method)

 maximal supplied QI-value         = 13.61
 optimisation between [QCUT,QGAM] = [ 10.20, 20.41] = [ 29.16,116.64] Ry 
 Optimized for a Real-space Cutoff    1.55 Angstroem

   l    n(q)    QCUT    max X(q) W(low)/X(q) W(high)/X(q)  e(spline) 
   2      9    10.205    80.908    0.50E-03    0.10E-02    0.77E-06
   2      9    10.205    79.000    0.50E-03    0.10E-02    0.77E-06
   0      9    10.205    52.066    0.67E-04    0.52E-04    0.18E-06
   0      9    10.205    24.514    0.55E-04    0.43E-04    0.15E-06
   1      9    10.205    16.033    0.32E-03    0.32E-03    0.31E-06
   1      9    10.205    11.179    0.26E-03    0.25E-03    0.25E-06
 Optimization of the real space projectors (new method)

 maximal supplied QI-value         = 12.85
 optimisation between [QCUT,QGAM] = [ 10.15, 20.43] = [ 28.86,116.90] Ry 
 Optimized for a Real-space Cutoff    1.65 Angstroem

   l    n(q)    QCUT    max X(q) W(low)/X(q) W(high)/X(q)  e(spline) 
   2      9    10.152    62.315    0.60E-04    0.31E-03    0.56E-06
   2      9    10.152    52.185    0.60E-04    0.31E-03    0.56E-06
   0     10    10.152   103.837    0.42E-04    0.36E-04    0.14E-06
   0     10    10.152    59.728    0.37E-04    0.32E-04    0.13E-06
   1     10    10.152    13.958    0.22E-03    0.17E-03    0.20E-06
   1     10    10.152     8.441    0.16E-03    0.13E-03    0.14E-06
 Optimization of the real space projectors (new method)

 maximal supplied QI-value         = 13.42
 optimisation between [QCUT,QGAM] = [ 10.20, 20.39] = [ 29.12,116.47] Ry 
 Optimized for a Real-space Cutoff    1.60 Angstroem

   l    n(q)    QCUT    max X(q) W(low)/X(q) W(high)/X(q)  e(spline) 
   2      9    10.197    49.363    0.30E-03    0.51E-03    0.44E-06
   2      9    10.197    47.669    0.29E-03    0.50E-03    0.43E-06
   0     10    10.197    26.374    0.13E-03    0.16E-03    0.99E-07
   0     10    10.197    11.549    0.10E-03    0.13E-03    0.84E-07
   1      9    10.197     9.492    0.22E-04    0.44E-04    0.50E-07
 Optimization of the real space projectors (new method)

 maximal supplied QI-value         = 13.61
 optimisation between [QCUT,QGAM] = [ 10.20, 20.41] = [ 29.16,116.64] Ry 
 Optimized for a Real-space Cutoff    1.55 Angstroem

   l    n(q)    QCUT    max X(q) W(low)/X(q) W(high)/X(q)  e(spline) 
   2      9    10.205   130.855    0.41E-03    0.84E-03    0.64E-06
   2      9    10.205   114.007    0.41E-03    0.84E-03    0.64E-06
   0      9    10.205    84.709    0.58E-04    0.61E-04    0.12E-06
   0      9    10.205    49.163    0.53E-04    0.55E-04    0.11E-06
   1      9    10.205    15.765    0.16E-03    0.32E-03    0.27E-06
   1      9    10.205    10.638    0.14E-03    0.24E-03    0.21E-06

 ----------------------------------------------------------------------------- 
|                                                                             |
|  ADVICE TO THIS USER RUNNING 'VASP/VAMP'   (HEAR YOUR MASTER'S VOICE ...):  |
|                                                                             |
|      You enforced a specific xc-type in the INCAR file,                     |
|      a different type was found on the POTCAR file                          |
|          I HOPE YOU KNOW, WHAT YOU ARE  DOING                               |
|                                                                             |
 ----------------------------------------------------------------------------- 

  PAW_PBE Nb_sv 25May2007               :
 energy of atom  1       EATOM=-1555.1913
 kinetic energy error for atom=    0.0212 (will be added to EATOM!!)
  PAW_PBE Mo 08Apr2002                  :
 energy of atom  2       EATOM= -217.5176
 kinetic energy error for atom=    0.0025 (will be added to EATOM!!)
  PAW_PBE Ta 17Jan2003                  :
 energy of atom  3       EATOM= -130.6506
 kinetic energy error for atom=    0.0018 (will be added to EATOM!!)
  PAW_PBE Ti 08Apr2002                  :
 energy of atom  4       EATOM=  -94.7928
 kinetic energy error for atom=    0.0005 (will be added to EATOM!!)
  PAW_PBE W 08Apr2002                   :
 energy of atom  5       EATOM= -204.6103
 kinetic energy error for atom=    0.0024 (will be added to EATOM!!)
 
 
 POSCAR: Nb - Mo - Ta - Ti - W SQS-30 BCC        
  positions in direct lattice
  No initial velocities read in
 exchange correlation table for  LEXCH =       14
   RHO(1)=    0.500       N(1)  =     2000
   RHO(2)=  100.500       N(2)  =     4000

 VTST: version 3.2, (02/03/18)

 CHAIN: initializing optimizer
 
 OPT: Using VASP QUASI-newton optimizer
 CHAIN: Read ICHAIN            0
 
 POSCAR: Nb - Mo - Ta - Ti - W SQS-30 BCC        
  positions in direct lattice
  No initial velocities read in
 


--------------------------------------------------------------------------------------------------------


 ion  position               nearest neighbor table
   1  0.000  0.000  0.000-  12 2.75  13 2.75  14 2.75  21 2.75  24 2.75  28 2.75   4 2.75   5 2.75
                            25 3.18   7 3.18   7 3.18
   2  0.833  0.000  0.333-  28 2.75  29 2.75   4 2.75  13 2.75  23 2.75   9 2.75  14 2.75  27 2.75
                            16 3.18   8 3.18   8 3.18  15 3.18
   3  0.100  0.400  0.600-  27 2.75  10 2.75  21 2.75   9 2.75   5 2.75  11 2.75  17 2.75  22 2.75
                            29 3.18  18 3.18  18 3.18
   4  0.200  0.800  0.200-   8 2.75  25 2.75  17 2.75  22 2.75  26 2.75   7 2.75   2 2.75   1 2.75
                            29 3.18  28 3.18  28 3.18  13 3.18
   5  0.800  0.200  0.800-   6 2.75  15 2.75  18 2.75  30 2.75   3 2.75  19 2.75   7 2.75   1 2.75
                            27 3.18  14 3.18  11 3.18  12 3.18
   6  0.933  0.400  0.933-   5 2.75  11 2.75  14 2.75  21 2.75  26 2.75  10 2.75  13 2.75  25 2.75
                            30 3.18  12 3.18  30 3.18  16 3.18
   7  0.500  0.000  0.000-  14 2.75  24 2.75  12 2.75  13 2.75   4 2.75   5 2.75  21 2.75  28 2.75
                            15 3.18   8 3.18  26 3.18  30 3.18   1 3.18   1 3.18
   8  0.333  0.000  0.333-   4 2.75  23 2.75  14 2.75  28 2.75  29 2.75  27 2.75  13 2.75   9 2.75
                             7 3.18  17 3.18  20 3.18   2 3.18   2 3.18  19 3.18
   9  0.467  0.200  0.467-  18 2.75  15 2.75  16 2.75   3 2.75  19 2.75   2 2.75  20 2.75   8 2.75
                            21 3.18  17 3.18  27 3.18  27 3.18  23 3.18  14 3.18
  10  0.233  0.600  0.733-   3 2.75  23 2.75  12 2.75  30 2.75  18 2.75   6 2.75  29 2.75  24 2.75
                            17 3.18  21 3.18  19 3.18  11 3.18  11 3.18  25 3.18
  11  0.733  0.600  0.733-  18 2.75   6 2.75  29 2.75  24 2.75  30 2.75   3 2.75  23 2.75  12 2.75
                            22 3.18   5 3.18  15 3.18  10 3.18  10 3.18  26 3.18
  12  0.867  0.800  0.867-   1 2.75  25 2.75  26 2.75  10 2.75   7 2.75  19 2.75  15 2.75  11 2.75
                            28 3.18   6 3.18  24 3.18  24 3.18   5 3.18  29 3.18
  13  0.133  0.200  0.133-   1 2.75  16 2.75  30 2.75   2 2.75   7 2.75   6 2.75   8 2.75  20 2.75
                            21 3.18  25 3.18  14 3.18  14 3.18   4 3.18  27 3.18
  14  0.633  0.200  0.133-   7 2.75   6 2.75  20 2.75  30 2.75   1 2.75   8 2.75   2 2.75  16 2.75
                             5 3.18  26 3.18  13 3.18  13 3.18  28 3.18   9 3.18
  15  0.667  0.000  0.667-   5 2.75   9 2.75  21 2.75  24 2.75  27 2.75  29 2.75  12 2.75  23 2.75
                             7 3.18  18 3.18  11 3.18  19 3.18  19 3.18   2 3.18
  16  0.767  0.400  0.267-  22 2.75   9 2.75  13 2.75  17 2.75  25 2.75  26 2.75  27 2.75  14 2.75
                            18 3.18  28 3.18   2 3.18  20 3.18  20 3.18   6 3.18
  17  0.400  0.600  0.400-  23 2.75  20 2.75   4 2.75  28 2.75  29 2.75   3 2.75  16 2.75  18 2.75
                            10 3.18  26 3.18   8 3.18   9 3.18  22 3.18  22 3.18
  18  0.600  0.400  0.600-   9 2.75  11 2.75   5 2.75  21 2.75  27 2.75  22 2.75  10 2.75  17 2.75
                            30 3.18  16 3.18  15 3.18  23 3.18   3 3.18   3 3.18
  19  0.167  0.000  0.667-  21 2.75  27 2.75   5 2.75  12 2.75   9 2.75  23 2.75  24 2.75  29 2.75
                            10 3.18  15 3.18  15 3.18   8 3.18
  20  0.267  0.400  0.267-  17 2.75  27 2.75  14 2.75  22 2.75   9 2.75  26 2.75  25 2.75  13 2.75
                             8 3.18  16 3.18  16 3.18  30 3.18
  21  0.300  0.200  0.800-  30 2.75  19 2.75   3 2.75   6 2.75  18 2.75  15 2.75   1 2.75   7 2.75
                             9 3.18  13 3.18  10 3.18
  22  0.900  0.600  0.400-  29 2.75  16 2.75  28 2.75   4 2.75  23 2.75  20 2.75  18 2.75   3 2.75
                            11 3.18  25 3.18  27 3.18  17 3.18  17 3.18
  23  0.533  0.800  0.533-  17 2.75   8 2.75  10 2.75  22 2.75   2 2.75  19 2.75  11 2.75  15 2.75
                            28 3.18  18 3.18  29 3.18  29 3.18   9 3.18
  24  0.367  0.800  0.867-   7 2.75  26 2.75  25 2.75  11 2.75   1 2.75  15 2.75  19 2.75  10 2.75
                            30 3.18  12 3.18  12 3.18
  25  0.067  0.600  0.067-   4 2.75  12 2.75  24 2.75  28 2.75  16 2.75  20 2.75  30 2.75   6 2.75
                            22 3.18  26 3.18   1 3.18  13 3.18  26 3.18  10 3.18
  26  0.567  0.600  0.067-  28 2.75  12 2.75  24 2.75   6 2.75   4 2.75  16 2.75  20 2.75  30 2.75
                            17 3.18  25 3.18   7 3.18  14 3.18  25 3.18  11 3.18
  27  0.967  0.200  0.467-   3 2.75  19 2.75  20 2.75  18 2.75  15 2.75   8 2.75  16 2.75   2 2.75
                             5 3.18  22 3.18   9 3.18   9 3.18  29 3.18  13 3.18
  28  0.700  0.800  0.200-   2 2.75  26 2.75  22 2.75  25 2.75  17 2.75   1 2.75   8 2.75   7 2.75
                            23 3.18  12 3.18  16 3.18   4 3.18   4 3.18  14 3.18
  29  0.033  0.800  0.533-  22 2.75   2 2.75  11 2.75  17 2.75   8 2.75  15 2.75  10 2.75  19 2.75
                             4 3.18   3 3.18  23 3.18  23 3.18  27 3.18  12 3.18
  30  0.433  0.400  0.933-  21 2.75   5 2.75  11 2.75  10 2.75  14 2.75  13 2.75  25 2.75  26 2.75
                            18 3.18   6 3.18   7 3.18  24 3.18   6 3.18  20 3.18
 

IMPORTANT INFORMATION: All symmetrisations will be switched off!
NOSYMM: (Re-)initialisation of all symmetry stuff for point group C_1.

 
 
 KPOINTS: k-points                                

Automatic generation of k-mesh.
Space group operators:
 irot       det(A)        alpha          n_x          n_y          n_z        tau_x        tau_y        tau_z
    1     1.000000     0.000000     1.000000     0.000000     0.000000     0.000000     0.000000     0.000000
 
 Subroutine IBZKPT returns following result:
 ===========================================
 
 Found     63 irreducible k-points:
 
 Following reciprocal coordinates:
            Coordinates               Weight
  0.000000  0.000000  0.000000      1.000000
  0.200000 -0.000000  0.000000      2.000000
  0.400000 -0.000000  0.000000      2.000000
  0.000000  0.200000  0.000000      2.000000
  0.200000  0.200000  0.000000      2.000000
  0.400000  0.200000  0.000000      2.000000
 -0.400000  0.200000 -0.000000      2.000000
 -0.200000  0.200000 -0.000000      2.000000
  0.000000  0.400000  0.000000      2.000000
  0.200000  0.400000  0.000000      2.000000
  0.400000  0.400000  0.000000      2.000000
 -0.400000  0.400000 -0.000000      2.000000
 -0.200000  0.400000 -0.000000      2.000000
  0.000000  0.000000  0.200000      2.000000
  0.200000 -0.000000  0.200000      2.000000
  0.400000  0.000000  0.200000      2.000000
 -0.400000  0.000000  0.200000      2.000000
 -0.200000  0.000000  0.200000      2.000000
  0.000000  0.200000  0.200000      2.000000
  0.200000  0.200000  0.200000      2.000000
  0.400000  0.200000  0.200000      2.000000
 -0.400000  0.200000  0.200000      2.000000
 -0.200000  0.200000  0.200000      2.000000
  0.000000  0.400000  0.200000      2.000000
  0.200000  0.400000  0.200000      2.000000
  0.400000  0.400000  0.200000      2.000000
 -0.400000  0.400000  0.200000      2.000000
 -0.200000  0.400000  0.200000      2.000000
  0.000000 -0.400000  0.200000      2.000000
  0.200000 -0.400000  0.200000      2.000000
  0.400000 -0.400000  0.200000      2.000000
 -0.400000 -0.400000  0.200000      2.000000
 -0.200000 -0.400000  0.200000      2.000000
  0.000000 -0.200000  0.200000      2.000000
  0.200000 -0.200000  0.200000      2.000000
  0.400000 -0.200000  0.200000      2.000000
 -0.400000 -0.200000  0.200000      2.000000
 -0.200000 -0.200000  0.200000      2.000000
  0.000000  0.000000  0.400000      2.000000
  0.200000  0.000000  0.400000      2.000000
  0.400000 -0.000000  0.400000      2.000000
 -0.400000  0.000000  0.400000      2.000000
 -0.200000 -0.000000  0.400000      2.000000
  0.000000  0.200000  0.400000      2.000000
  0.200000  0.200000  0.400000      2.000000
  0.400000  0.200000  0.400000      2.000000
 -0.400000  0.200000  0.400000      2.000000
 -0.200000  0.200000  0.400000      2.000000
  0.000000  0.400000  0.400000      2.000000
  0.200000  0.400000  0.400000      2.000000
  0.400000  0.400000  0.400000      2.000000
 -0.400000  0.400000  0.400000      2.000000
 -0.200000  0.400000  0.400000      2.000000
  0.000000 -0.400000  0.400000      2.000000
  0.200000 -0.400000  0.400000      2.000000
  0.400000 -0.400000  0.400000      2.000000
 -0.400000 -0.400000  0.400000      2.000000
 -0.200000 -0.400000  0.400000      2.000000
  0.000000 -0.200000  0.400000      2.000000
  0.200000 -0.200000  0.400000      2.000000
  0.400000 -0.200000  0.400000      2.000000
 -0.400000 -0.200000  0.400000      2.000000
 -0.200000 -0.200000  0.400000      2.000000
 
 Following cartesian coordinates:
            Coordinates               Weight
  0.000000  0.000000  0.000000      1.000000
 -0.013333 -0.033333  0.100000      2.000000
 -0.026667 -0.066667  0.200000      2.000000
  0.080000  0.000000  0.000000      2.000000
  0.066667 -0.033333  0.100000      2.000000
  0.053333 -0.066667  0.200000      2.000000
  0.106667  0.066667 -0.200000      2.000000
  0.093333  0.033333 -0.100000      2.000000
  0.160000  0.000000  0.000000      2.000000
  0.146667 -0.033333  0.100000      2.000000
  0.133333 -0.066667  0.200000      2.000000
  0.186667  0.066667 -0.200000      2.000000
  0.173333  0.033333 -0.100000      2.000000
 -0.013333  0.066667  0.000000      2.000000
 -0.026667  0.033333  0.100000      2.000000
 -0.040000  0.000000  0.200000      2.000000
  0.013333  0.133333 -0.200000      2.000000
  0.000000  0.100000 -0.100000      2.000000
  0.066667  0.066667  0.000000      2.000000
  0.053333  0.033333  0.100000      2.000000
  0.040000  0.000000  0.200000      2.000000
  0.093333  0.133333 -0.200000      2.000000
  0.080000  0.100000 -0.100000      2.000000
  0.146667  0.066667  0.000000      2.000000
  0.133333  0.033333  0.100000      2.000000
  0.120000  0.000000  0.200000      2.000000
  0.173333  0.133333 -0.200000      2.000000
  0.160000  0.100000 -0.100000      2.000000
 -0.173333  0.066667  0.000000      2.000000
 -0.186667  0.033333  0.100000      2.000000
 -0.200000  0.000000  0.200000      2.000000
 -0.146667  0.133333 -0.200000      2.000000
 -0.160000  0.100000 -0.100000      2.000000
 -0.093333  0.066667  0.000000      2.000000
 -0.106667  0.033333  0.100000      2.000000
 -0.120000  0.000000  0.200000      2.000000
 -0.066667  0.133333 -0.200000      2.000000
 -0.080000  0.100000 -0.100000      2.000000
 -0.026667  0.133333  0.000000      2.000000
 -0.040000  0.100000  0.100000      2.000000
 -0.053333  0.066667  0.200000      2.000000
  0.000000  0.200000 -0.200000      2.000000
 -0.013333  0.166667 -0.100000      2.000000
  0.053333  0.133333  0.000000      2.000000
  0.040000  0.100000  0.100000      2.000000
  0.026667  0.066667  0.200000      2.000000
  0.080000  0.200000 -0.200000      2.000000
  0.066667  0.166667 -0.100000      2.000000
  0.133333  0.133333  0.000000      2.000000
  0.120000  0.100000  0.100000      2.000000
  0.106667  0.066667  0.200000      2.000000
  0.160000  0.200000 -0.200000      2.000000
  0.146667  0.166667 -0.100000      2.000000
 -0.186667  0.133333  0.000000      2.000000
 -0.200000  0.100000  0.100000      2.000000
 -0.213333  0.066667  0.200000      2.000000
 -0.160000  0.200000 -0.200000      2.000000
 -0.173333  0.166667 -0.100000      2.000000
 -0.106667  0.133333  0.000000      2.000000
 -0.120000  0.100000  0.100000      2.000000
 -0.133333  0.066667  0.200000      2.000000
 -0.080000  0.200000 -0.200000      2.000000
 -0.093333  0.166667 -0.100000      2.000000
 


--------------------------------------------------------------------------------------------------------




 Dimension of arrays:
   k-points           NKPTS =     63   k-points in BZ     NKDIM =     63   number of bands    NBANDS=    128
   number of dos      NEDOS =    301   number of ions     NIONS =     30
   non local maximal  LDIM  =      6   non local SUM 2l+1 LMDIM =     18
   total plane-waves  NPLWV =  64000
   max r-space proj   IRMAX =   2539   max aug-charges    IRDMAX=   9362
   dimension x,y,z NGX =    32 NGY =   40 NGZ =   50
   dimension x,y,z NGXF=    64 NGYF=   80 NGZF=  100
   support grid    NGXF=    64 NGYF=   80 NGZF=  100
   ions per type =               6   6   6   6   6
   NGX,Y,Z   is equivalent  to a cutoff of   8.36,  8.05,  8.27 a.u.
   NGXF,Y,Z  is equivalent  to a cutoff of  16.73, 16.10, 16.53 a.u.

 SYSTEM =  Nb - Mo - Ta - Ti - W SQS               
 POSCAR =  Nb - Mo - Ta - Ti - W SQS-30 BCC        

 Startparameter for this run:
   NWRITE =      2    write-flag & timer
   PREC   = normal    normal or accurate (medium, high low for compatibility)
   ISTART =      0    job   : 0-new  1-cont  2-samecut
   ICHARG =      2    charge: 1-file 2-atom 10-const
   ISPIN  =      1    spin polarized calculation?
   LNONCOLLINEAR =      F non collinear calculations
   LSORBIT =      F    spin-orbit coupling
   INIWAV =      1    electr: 0-lowe 1-rand  2-diag
   LASPH  =      F    aspherical Exc in radial PAW
   METAGGA=      F    non-selfconsistent MetaGGA calc.

 Electronic Relaxation 1
   ENCUT  =  400.0 eV  29.40 Ry    5.42 a.u.  10.37 13.47 16.40*2*pi/ulx,y,z
   ENINI  =  400.0     initial cutoff
   ENAUG  =  455.7 eV  augmentation charge cutoff
   NELM   =     60;   NELMIN=  2; NELMDL= -5     # of ELM steps 
   EDIFF  = 0.1E-03   stopping-criterion for ELM
   LREAL  =      T    real-space projection
   NLSPLINE    = F    spline interpolate recip. space projectors
   LCOMPAT=      F    compatible to vasp.4.4
   GGA_COMPAT  = T    GGA compatible to vasp.4.4-vasp.4.6
   LMAXPAW     = -100 max onsite density
   LMAXMIX     =    2 max onsite mixed and CHGCAR
   VOSKOWN=      0    Vosko Wilk Nusair interpolation
   ROPT   =   -0.00050  -0.00050  -0.00050  -0.00050
   ROPT   =   -0.00050
 Ionic relaxation
   EDIFFG = 0.1E-02   stopping-criterion for IOM
   NSW    =      0    number of steps for IOM
   NBLOCK =      1;   KBLOCK =      1    inner block; outer block 
   IBRION =     -1    ionic relax: 0-MD 1-quasi-New 2-CG
   NFREE  =      0    steps in history (QN), initial steepest desc. (CG)
   ISIF   =      2    stress and relaxation
   IWAVPR =     10    prediction:  0-non 1-charg 2-wave 3-comb
   ISYM   =      0    0-nonsym 1-usesym 2-fastsym
   LCORR  =      T    Harris-Foulkes like correction to forces

   POTIM  = 0.5000    time-step for ionic-motion
   TEIN   =    0.0    initial temperature
   TEBEG  =    0.0;   TEEND  =   0.0 temperature during run
   SMASS  =  -3.00    Nose mass-parameter (am)
   estimated Nose-frequenzy (Omega)   =  0.10E-29 period in steps =****** mass=  -0.924E-27a.u.
   SCALEE = 1.0000    scale energy and forces
   NPACO  =    256;   APACO  = 16.0  distance and # of slots for P.C.
   PSTRESS=    0.0 pullay stress

  Mass of Ions in am
   POMASS =  92.91 95.94180.95 47.88183.85
  Ionic Valenz
   ZVAL   =  13.00  6.00  5.00  4.00  6.00
  Atomic Wigner-Seitz radii
   RWIGS  =  -1.00 -1.00 -1.00 -1.00 -1.00
  virtual crystal weights 
   VCA    =   1.00  1.00  1.00  1.00  1.00
   NELECT =     204.0000    total number of electrons
   NUPDOWN=      -1.0000    fix difference up-down

 DOS related values:
   EMIN   =  10.00;   EMAX   =-10.00  energy-range for DOS
   EFERMI =   0.00
   ISMEAR =     1;   SIGMA  =   0.20  broadening in eV -4-tet -1-fermi 0-gaus

 Electronic relaxation 2 (details)
   IALGO  =     38    algorithm
   LDIAG  =      T    sub-space diagonalisation (order eigenvalues)
   LSUBROT=      F    optimize rotation matrix (better conditioning)
   TURBO    =      0    0=normal 1=particle mesh
   IRESTART =      0    0=no restart 2=restart with 2 vectors
   NREBOOT  =      0    no. of reboots
   NMIN     =      0    reboot dimension
   EREF     =   0.00    reference energy to select bands
   IMIX   =      4    mixing-type and parameters
     AMIX     =   0.40;   BMIX     =  1.00
     AMIX_MAG =   1.60;   BMIX_MAG =  1.00
     AMIN     =   0.10
     WC   =   100.;   INIMIX=   1;  MIXPRE=   1;  MAXMIX= -45

 Intra band minimization:
   WEIMIN = 0.0000     energy-eigenvalue tresh-hold
   EBREAK =  0.20E-06  absolut break condition
   DEPER  =   0.30     relativ break condition  

   TIME   =   0.40     timestep for ELM

  volume/ion in A,a.u.               =      16.08       108.50
  Fermi-wavevector in a.u.,A,eV,Ry     =   1.228836  2.322164 20.545321  1.510039
  Thomas-Fermi vector in A             =   2.363747
 
 Write flags
   LWAVE        =      T    write WAVECAR
   LDOWNSAMPLE  =      F    k-point downsampling of WAVECAR
   LCHARG       =      T    write CHGCAR
   LVTOT        =      F    write LOCPOT, total local potential
   LVHAR        =      F    write LOCPOT, Hartree potential only
   LELF         =      F    write electronic localiz. function (ELF)
   LORBIT       =      0    0 simple, 1 ext, 2 COOP (PROOUT), +10 PAW based schemes


 Dipole corrections
   LMONO  =      F    monopole corrections only (constant potential shift)
   LDIPOL =      F    correct potential (dipole corrections)
   IDIPOL =      0    1-x, 2-y, 3-z, 4-all directions 
   EPSILON=  1.0000000 bulk dielectric constant

 Exchange correlation treatment:
   GGA     =    PS    GGA type
   LEXCH   =    14    internal setting for exchange type
   VOSKOWN=      0    Vosko Wilk Nusair interpolation
   LHFCALC =     F    Hartree Fock is set to
   LHFONE  =     F    Hartree Fock one center treatment
   AEXX    =    0.0000 exact exchange contribution

 Linear response parameters
   LEPSILON=     F    determine dielectric tensor
   LRPA    =     F    only Hartree local field effects (RPA)
   LNABLA  =     F    use nabla operator in PAW spheres
   LVEL    =     F    velocity operator in full k-point grid
   LINTERFAST=   F  fast interpolation
   KINTER  =     0    interpolate to denser k-point grid
   CSHIFT  =0.1000    complex shift for real part using Kramers Kronig
   OMEGAMAX=  -1.0    maximum frequency
   DEG_THRESHOLD= 0.2000000E-02 threshold for treating states as degnerate
   RTIME   =   -0.100 relaxation time in fs
  (WPLASMAI=    0.000 imaginary part of plasma frequency in eV, 0.658/RTIME)
   DFIELD  = 0.0000000 0.0000000 0.0000000 field for delta impulse in time
 
 Orbital magnetization related:
   ORBITALMAG=     F  switch on orbital magnetization
   LCHIMAG   =     F  perturbation theory with respect to B field
   DQ        =  0.001000  dq finite difference perturbation B field
   LLRAUG    =     F  two centre corrections for induced B field



--------------------------------------------------------------------------------------------------------


 Static calculation
 charge density and potential will be updated during run
 non-spin polarized calculation
 Variant of blocked Davidson
 Davidson routine will perform the subspace rotation
 perform sub-space diagonalisation
    after iterative eigenvector-optimisation
 modified Broyden-mixing scheme, WC =      100.0
 initial mixing is a Kerker type mixing with AMIX =  0.4000 and BMIX =      1.0000
 Hartree-type preconditioning will be used
 using additional bands           26
 real space projection scheme for non local part
 use partial core corrections
 calculate Harris-corrections to forces 
   (improved forces if not selfconsistent)
 use gradient corrections 
 use of overlap-Matrix (Vanderbilt PP)
 Methfessel and Paxton  Order N= 1 SIGMA  =   0.20


--------------------------------------------------------------------------------------------------------


  energy-cutoff  :      400.00
  volume of cell :      482.36
      direct lattice vectors                 reciprocal lattice vectors
     0.000000000  0.000000000  6.360000000    -0.020964361 -0.052410901  0.157232704
     7.950000000  1.590000000  1.590000000     0.125786164  0.000000000  0.000000000
     0.000000000  9.540000000  3.180000000    -0.020964361  0.104821803  0.000000000

  length of vectors
     6.360000000  8.261882352 10.056042959     0.167058464  0.125786164  0.106897684


 
 k-points in units of 2pi/SCALE and weight: k-points                                
   0.00000000  0.00000000  0.00000000       0.008
  -0.01333333 -0.03333333  0.10000000       0.016
  -0.02666667 -0.06666667  0.20000000       0.016
   0.08000000  0.00000000  0.00000000       0.016
   0.06666667 -0.03333333  0.10000000       0.016
   0.05333333 -0.06666667  0.20000000       0.016
   0.10666667  0.06666667 -0.20000000       0.016
   0.09333333  0.03333333 -0.10000000       0.016
   0.16000000  0.00000000  0.00000000       0.016
   0.14666667 -0.03333333  0.10000000       0.016
   0.13333333 -0.06666667  0.20000000       0.016
   0.18666667  0.06666667 -0.20000000       0.016
   0.17333333  0.03333333 -0.10000000       0.016
  -0.01333333  0.06666667  0.00000000       0.016
  -0.02666667  0.03333333  0.10000000       0.016
  -0.04000000  0.00000000  0.20000000       0.016
   0.01333333  0.13333333 -0.20000000       0.016
   0.00000000  0.10000000 -0.10000000       0.016
   0.06666667  0.06666667  0.00000000       0.016
   0.05333333  0.03333333  0.10000000       0.016
   0.04000000  0.00000000  0.20000000       0.016
   0.09333333  0.13333333 -0.20000000       0.016
   0.08000000  0.10000000 -0.10000000       0.016
   0.14666667  0.06666667  0.00000000       0.016
   0.13333333  0.03333333  0.10000000       0.016
   0.12000000  0.00000000  0.20000000       0.016
   0.17333333  0.13333333 -0.20000000       0.016
   0.16000000  0.10000000 -0.10000000       0.016
  -0.17333333  0.06666667  0.00000000       0.016
  -0.18666667  0.03333333  0.10000000       0.016
  -0.20000000  0.00000000  0.20000000       0.016
  -0.14666667  0.13333333 -0.20000000       0.016
  -0.16000000  0.10000000 -0.10000000       0.016
  -0.09333333  0.06666667  0.00000000       0.016
  -0.10666667  0.03333333  0.10000000       0.016
  -0.12000000  0.00000000  0.20000000       0.016
  -0.06666667  0.13333333 -0.20000000       0.016
  -0.08000000  0.10000000 -0.10000000       0.016
  -0.02666667  0.13333333  0.00000000       0.016
  -0.04000000  0.10000000  0.10000000       0.016
  -0.05333333  0.06666667  0.20000000       0.016
   0.00000000  0.20000000 -0.20000000       0.016
  -0.01333333  0.16666667 -0.10000000       0.016
   0.05333333  0.13333333  0.00000000       0.016
   0.04000000  0.10000000  0.10000000       0.016
   0.02666667  0.06666667  0.20000000       0.016
   0.08000000  0.20000000 -0.20000000       0.016
   0.06666667  0.16666667 -0.10000000       0.016
   0.13333333  0.13333333  0.00000000       0.016
   0.12000000  0.10000000  0.10000000       0.016
   0.10666667  0.06666667  0.20000000       0.016
   0.16000000  0.20000000 -0.20000000       0.016
   0.14666667  0.16666667 -0.10000000       0.016
  -0.18666667  0.13333333  0.00000000       0.016
  -0.20000000  0.10000000  0.10000000       0.016
  -0.21333333  0.06666667  0.20000000       0.016
  -0.16000000  0.20000000 -0.20000000       0.016
  -0.17333333  0.16666667 -0.10000000       0.016
  -0.10666667  0.13333333  0.00000000       0.016
  -0.12000000  0.10000000  0.10000000       0.016
  -0.13333333  0.06666667  0.20000000       0.016
  -0.08000000  0.20000000 -0.20000000       0.016
  -0.09333333  0.16666667 -0.10000000       0.016
 
 k-points in reciprocal lattice and weights: k-points                                
   0.00000000  0.00000000  0.00000000       0.008
   0.20000000 -0.00000000  0.00000000       0.016
   0.40000000 -0.00000000  0.00000000       0.016
   0.00000000  0.20000000  0.00000000       0.016
   0.20000000  0.20000000  0.00000000       0.016
   0.40000000  0.20000000  0.00000000       0.016
  -0.40000000  0.20000000 -0.00000000       0.016
  -0.20000000  0.20000000 -0.00000000       0.016
   0.00000000  0.40000000  0.00000000       0.016
   0.20000000  0.40000000  0.00000000       0.016
   0.40000000  0.40000000  0.00000000       0.016
  -0.40000000  0.40000000 -0.00000000       0.016
  -0.20000000  0.40000000 -0.00000000       0.016
   0.00000000  0.00000000  0.20000000       0.016
   0.20000000 -0.00000000  0.20000000       0.016
   0.40000000  0.00000000  0.20000000       0.016
  -0.40000000  0.00000000  0.20000000       0.016
  -0.20000000  0.00000000  0.20000000       0.016
   0.00000000  0.20000000  0.20000000       0.016
   0.20000000  0.20000000  0.20000000       0.016
   0.40000000  0.20000000  0.20000000       0.016
  -0.40000000  0.20000000  0.20000000       0.016
  -0.20000000  0.20000000  0.20000000       0.016
   0.00000000  0.40000000  0.20000000       0.016
   0.20000000  0.40000000  0.20000000       0.016
   0.40000000  0.40000000  0.20000000       0.016
  -0.40000000  0.40000000  0.20000000       0.016
  -0.20000000  0.40000000  0.20000000       0.016
   0.00000000 -0.40000000  0.20000000       0.016
   0.20000000 -0.40000000  0.20000000       0.016
   0.40000000 -0.40000000  0.20000000       0.016
  -0.40000000 -0.40000000  0.20000000       0.016
  -0.20000000 -0.40000000  0.20000000       0.016
   0.00000000 -0.20000000  0.20000000       0.016
   0.20000000 -0.20000000  0.20000000       0.016
   0.40000000 -0.20000000  0.20000000       0.016
  -0.40000000 -0.20000000  0.20000000       0.016
  -0.20000000 -0.20000000  0.20000000       0.016
   0.00000000  0.00000000  0.40000000       0.016
   0.20000000  0.00000000  0.40000000       0.016
   0.40000000 -0.00000000  0.40000000       0.016
  -0.40000000  0.00000000  0.40000000       0.016
  -0.20000000 -0.00000000  0.40000000       0.016
   0.00000000  0.20000000  0.40000000       0.016
   0.20000000  0.20000000  0.40000000       0.016
   0.40000000  0.20000000  0.40000000       0.016
  -0.40000000  0.20000000  0.40000000       0.016
  -0.20000000  0.20000000  0.40000000       0.016
   0.00000000  0.40000000  0.40000000       0.016
   0.20000000  0.40000000  0.40000000       0.016
   0.40000000  0.40000000  0.40000000       0.016
  -0.40000000  0.40000000  0.40000000       0.016
  -0.20000000  0.40000000  0.40000000       0.016
   0.00000000 -0.40000000  0.40000000       0.016
   0.20000000 -0.40000000  0.40000000       0.016
   0.40000000 -0.40000000  0.40000000       0.016
  -0.40000000 -0.40000000  0.40000000       0.016
  -0.20000000 -0.40000000  0.40000000       0.016
   0.00000000 -0.20000000  0.40000000       0.016
   0.20000000 -0.20000000  0.40000000       0.016
   0.40000000 -0.20000000  0.40000000       0.016
  -0.40000000 -0.20000000  0.40000000       0.016
  -0.20000000 -0.20000000  0.40000000       0.016
 
 position of ions in fractional coordinates (direct lattice) 
   0.00000000  0.00000000  0.00000000
   0.83333333  0.00000000  0.33333333
   0.10000000  0.40000000  0.60000000
   0.20000000  0.80000000  0.20000000
   0.80000000  0.20000000  0.80000000
   0.93333333  0.40000000  0.93333333
   0.50000000  0.00000000  0.00000000
   0.33333333  0.00000000  0.33333333
   0.46666667  0.20000000  0.46666667
   0.23333333  0.60000000  0.73333333
   0.73333333  0.60000000  0.73333333
   0.86666667  0.80000000  0.86666667
   0.13333333  0.20000000  0.13333333
   0.63333333  0.20000000  0.13333333
   0.66666667  0.00000000  0.66666667
   0.76666667  0.40000000  0.26666667
   0.40000000  0.60000000  0.40000000
   0.60000000  0.40000000  0.60000000
   0.16666667  0.00000000  0.66666667
   0.26666667  0.40000000  0.26666667
   0.30000000  0.20000000  0.80000000
   0.90000000  0.60000000  0.40000000
   0.53333333  0.80000000  0.53333333
   0.36666667  0.80000000  0.86666667
   0.06666667  0.60000000  0.06666667
   0.56666667  0.60000000  0.06666667
   0.96666667  0.20000000  0.46666667
   0.70000000  0.80000000  0.20000000
   0.03333333  0.80000000  0.53333333
   0.43333333  0.40000000  0.93333333
 
 position of ions in cartesian coordinates  (Angst):
   0.00000000  0.00000000  0.00000000
   0.00000000  3.17999997  6.35999997
   3.18000000  6.36000000  3.18000000
   6.36000000  3.18000000  3.18000000
   1.59000000  7.95000000  7.95000000
   3.18000000  9.53999997  9.53999997
   0.00000000  0.00000000  3.18000000
   0.00000000  3.17999997  3.17999997
   1.59000000  4.77000003  4.77000003
   4.77000000  7.94999997  4.76999997
   4.77000000  7.94999997  7.94999997
   6.36000000  9.54000003  9.54000003
   1.59000000  1.58999997  1.58999997
   1.59000000  1.58999997  4.76999997
   0.00000000  6.36000003  6.36000003
   3.18000000  3.18000003  6.36000003
   4.77000000  4.77000000  4.77000000
   3.18000000  6.36000000  6.36000000
   0.00000000  6.36000003  3.18000003
   3.18000000  3.18000003  3.18000003
   1.59000000  7.95000000  4.77000000
   4.77000000  4.77000000  7.95000000
   6.36000000  6.35999997  6.35999997
   6.36000000  9.54000003  6.36000003
   4.77000000  1.59000003  1.59000003
   4.77000000  1.59000003  4.77000003
   1.59000000  4.77000003  7.95000003
   6.36000000  3.18000000  6.36000000
   6.36000000  6.35999997  3.17999997
   3.18000000  9.53999997  6.35999997
 


--------------------------------------------------------------------------------------------------------


 k-point  1 :   0.0000 0.0000 0.0000  plane waves:    8773
 k-point  2 :   0.2000-0.0000 0.0000  plane waves:    8788
 k-point  3 :   0.4000-0.0000 0.0000  plane waves:    8757
 k-point  4 :   0.0000 0.2000 0.0000  plane waves:    8801
 k-point  5 :   0.2000 0.2000 0.0000  plane waves:    8769
 k-point  6 :   0.4000 0.2000 0.0000  plane waves:    8773
 k-point  7 :  -0.4000 0.2000-0.0000  plane waves:    8750
 k-point  8 :  -0.2000 0.2000-0.0000  plane waves:    8768
 k-point  9 :   0.0000 0.4000 0.0000  plane waves:    8733
 k-point 10 :   0.2000 0.4000 0.0000  plane waves:    8773
 k-point 11 :   0.4000 0.4000 0.0000  plane waves:    8749
 k-point 12 :  -0.4000 0.4000-0.0000  plane waves:    8741
 k-point 13 :  -0.2000 0.4000-0.0000  plane waves:    8751
 k-point 14 :   0.0000 0.0000 0.2000  plane waves:    8794
 k-point 15 :   0.2000-0.0000 0.2000  plane waves:    8769
 k-point 16 :   0.4000 0.0000 0.2000  plane waves:    8768
 k-point 17 :  -0.4000 0.0000 0.2000  plane waves:    8754
 k-point 18 :  -0.2000 0.0000 0.2000  plane waves:    8771
 k-point 19 :   0.0000 0.2000 0.2000  plane waves:    8771
 k-point 20 :   0.2000 0.2000 0.2000  plane waves:    8781
 k-point 21 :   0.4000 0.2000 0.2000  plane waves:    8764
 k-point 22 :  -0.4000 0.2000 0.2000  plane waves:    8760
 k-point 23 :  -0.2000 0.2000 0.2000  plane waves:    8754
 k-point 24 :   0.0000 0.4000 0.2000  plane waves:    8758
 k-point 25 :   0.2000 0.4000 0.2000  plane waves:    8761
 k-point 26 :   0.4000 0.4000 0.2000  plane waves:    8758
 k-point 27 :  -0.4000 0.4000 0.2000  plane waves:    8744
 k-point 28 :  -0.2000 0.4000 0.2000  plane waves:    8754
 k-point 29 :   0.0000-0.4000 0.2000  plane waves:    8750
 k-point 30 :   0.2000-0.4000 0.2000  plane waves:    8767
 k-point 31 :   0.4000-0.4000 0.2000  plane waves:    8772
 k-point 32 :  -0.4000-0.4000 0.2000  plane waves:    8749
 k-point 33 :  -0.2000-0.4000 0.2000  plane waves:    8754
 k-point 34 :   0.0000-0.2000 0.2000  plane waves:    8788
 k-point 35 :   0.2000-0.2000 0.2000  plane waves:    8769
 k-point 36 :   0.4000-0.2000 0.2000  plane waves:    8770
 k-point 37 :  -0.4000-0.2000 0.2000  plane waves:    8742
 k-point 38 :  -0.2000-0.2000 0.2000  plane waves:    8758
 k-point 39 :   0.0000 0.0000 0.4000  plane waves:    8774
 k-point 40 :   0.2000 0.0000 0.4000  plane waves:    8762
 k-point 41 :   0.4000-0.0000 0.4000  plane waves:    8758
 k-point 42 :  -0.4000 0.0000 0.4000  plane waves:    8744
 k-point 43 :  -0.2000-0.0000 0.4000  plane waves:    8763
 k-point 44 :   0.0000 0.2000 0.4000  plane waves:    8764
 k-point 45 :   0.2000 0.2000 0.4000  plane waves:    8754
 k-point 46 :   0.4000 0.2000 0.4000  plane waves:    8757
 k-point 47 :  -0.4000 0.2000 0.4000  plane waves:    8773
 k-point 48 :  -0.2000 0.2000 0.4000  plane waves:    8748
 k-point 49 :   0.0000 0.4000 0.4000  plane waves:    8766
 k-point 50 :   0.2000 0.4000 0.4000  plane waves:    8752
 k-point 51 :   0.4000 0.4000 0.4000  plane waves:    8758
 k-point 52 :  -0.4000 0.4000 0.4000  plane waves:    8745
 k-point 53 :  -0.2000 0.4000 0.4000  plane waves:    8758
 k-point 54 :   0.0000-0.4000 0.4000  plane waves:    8759
 k-point 55 :   0.2000-0.4000 0.4000  plane waves:    8759
 k-point 56 :   0.4000-0.4000 0.4000  plane waves:    8748
 k-point 57 :  -0.4000-0.4000 0.4000  plane waves:    8745
 k-point 58 :  -0.2000-0.4000 0.4000  plane waves:    8754
 k-point 59 :   0.0000-0.2000 0.4000  plane waves:    8771
 k-point 60 :   0.2000-0.2000 0.4000  plane waves:    8765
 k-point 61 :   0.4000-0.2000 0.4000  plane waves:    8744
 k-point 62 :  -0.4000-0.2000 0.4000  plane waves:    8745
 k-point 63 :  -0.2000-0.2000 0.4000  plane waves:    8760

 maximum and minimum number of plane-waves per node :      2213     2153

 maximum number of plane-waves:      8801
 maximum index in each direction: 
   IXMAX=   10   IYMAX=   13   IZMAX=   16
   IXMIN=  -10   IYMIN=  -13   IZMIN=  -16


 real space projection operators:
  total allocation   :       8872.66 KBytes
  max/ min on nodes  :       2225.72       2210.23


 parallel 3D FFT for wavefunctions:
    minimum data exchange during FFTs selected (reduces bandwidth)
 parallel 3D FFT for charge:
    minimum data exchange during FFTs selected (reduces bandwidth)


 total amount of memory used by VASP MPI-rank0    75199. kBytes
=======================================================================

   base      :      30000. kBytes
   nonlr-proj:       4012. kBytes
   fftplans  :       1052. kBytes
   grid      :       1949. kBytes
   one-center:        124. kBytes
   wavefun   :      38062. kBytes
 
     INWAV:  cpu time    0.0000: real time    0.0002
 Broyden mixing: mesh for mixing (old mesh)
   NGX = 21   NGY = 27   NGZ = 33
  (NGX  = 64   NGY  = 80   NGZ  =100)
  gives a total of  18711 points

 initial charge density was supplied:
 charge density of overlapping atoms calculated
 number of electron     204.0000000 magnetization 
 keeping initial charge density in first step


--------------------------------------------------------------------------------------------------------


 Maximum index for non-local projection operator          605
 Maximum index for augmentation-charges          486 (set IRDMAX)


--------------------------------------------------------------------------------------------------------


 First call to EWALD:  gamma=   0.226
 Maximum number of real-space cells 3x 3x 2
 Maximum number of reciprocal cells 2x 3x 3

    FEWALD:  cpu time    0.0028: real time    0.0028


--------------------------------------- Iteration      1(   1)  ---------------------------------------


    POTLOK:  cpu time    0.0151: real time    0.0202
    SETDIJ:  cpu time    0.0038: real time    0.0039
     EDDAV:  cpu time   10.2443: real time   10.2839
       DOS:  cpu time    0.0039: real time    0.0039
    --------------------------------------------
      LOOP:  cpu time   10.2672: real time   10.3120

 eigenvalue-minimisations  : 16168
 total energy-change (2. order) : 0.1633391E+04  (-0.7534063E+04)
 number of electron     204.0000000 magnetization 
 augmentation part      204.0000000 magnetization 

 Free energy of the ion-electron system (eV)
  ---------------------------------------------------
  alpha Z        PSCENC =      1394.49509222
  Ewald energy   TEWEN  =    -12130.41111242
  -Hartree energ DENC   =     -2994.63359010
  -exchange      EXHF   =         0.00000000
  -V(xc)+E(xc)   XCENC  =      -901.91722124
  PAW double counting   =     12303.85264859   -10739.97191893
  entropy T*S    EENTRO =         0.00142708
  eigenvalues    EBANDS =      1491.12332332
  atomic energy  EATOM  =     13210.85262565
  Solvation  Ediel_sol  =         0.00000000
  ---------------------------------------------------
  free energy    TOTEN  =      1633.39127416 eV

  energy without entropy =     1633.38984708  energy(sigma->0) =     1633.39079847


--------------------------------------------------------------------------------------------------------




--------------------------------------- Iteration      1(   2)  ---------------------------------------


     EDDAV:  cpu time   10.2516: real time   10.2710
       DOS:  cpu time    0.0041: real time    0.0041
    --------------------------------------------
      LOOP:  cpu time   10.2557: real time   10.2752

 eigenvalue-minimisations  : 16128
 total energy-change (2. order) :-0.1681841E+04  (-0.1616720E+04)
 number of electron     204.0000000 magnetization 
 augmentation part      204.0000000 magnetization 

 Free energy of the ion-electron system (eV)
  ---------------------------------------------------
  alpha Z        PSCENC =      1394.49509222
  Ewald energy   TEWEN  =    -12130.41111242
  -Hartree energ DENC   =     -2994.63359010
  -exchange      EXHF   =         0.00000000
  -V(xc)+E(xc)   XCENC  =      -901.91722124
  PAW double counting   =     12303.85264859   -10739.97191893
  entropy T*S    EENTRO =         0.00066835
  eigenvalues    EBANDS =      -190.71645594
  atomic energy  EATOM  =     13210.85262565
  Solvation  Ediel_sol  =         0.00000000
  ---------------------------------------------------
  free energy    TOTEN  =       -48.44926383 eV

  energy without entropy =      -48.44993217  energy(sigma->0) =      -48.44948661


--------------------------------------------------------------------------------------------------------




--------------------------------------- Iteration      1(   3)  ---------------------------------------


     EDDAV:  cpu time   16.6423: real time   16.6655
       DOS:  cpu time    0.0042: real time    0.0042
    --------------------------------------------
      LOOP:  cpu time   16.6465: real time   16.6697

 eigenvalue-minimisations  : 28400
 total energy-change (2. order) :-0.2858306E+03  (-0.2682358E+03)
 number of electron     204.0000000 magnetization 
 augmentation part      204.0000000 magnetization 

 Free energy of the ion-electron system (eV)
  ---------------------------------------------------
  alpha Z        PSCENC =      1394.49509222
  Ewald energy   TEWEN  =    -12130.41111242
  -Hartree energ DENC   =     -2994.63359010
  -exchange      EXHF   =         0.00000000
  -V(xc)+E(xc)   XCENC  =      -901.91722124
  PAW double counting   =     12303.85264859   -10739.97191893
  entropy T*S    EENTRO =         0.00720640
  eigenvalues    EBANDS =      -476.55357369
  atomic energy  EATOM  =     13210.85262565
  Solvation  Ediel_sol  =         0.00000000
  ---------------------------------------------------
  free energy    TOTEN  =      -334.27984353 eV

  energy without entropy =     -334.28704993  energy(sigma->0) =     -334.28224567


--------------------------------------------------------------------------------------------------------




--------------------------------------- Iteration      1(   4)  ---------------------------------------


     EDDAV:  cpu time   15.1755: real time   15.1993
       DOS:  cpu time    0.0042: real time    0.0042
    --------------------------------------------
      LOOP:  cpu time   15.1797: real time   15.2035

 eigenvalue-minimisations  : 25568
 total energy-change (2. order) :-0.3167049E+02  (-0.2981939E+02)
 number of electron     204.0000000 magnetization 
 augmentation part      204.0000000 magnetization 

 Free energy of the ion-electron system (eV)
  ---------------------------------------------------
  alpha Z        PSCENC =      1394.49509222
  Ewald energy   TEWEN  =    -12130.41111242
  -Hartree energ DENC   =     -2994.63359010
  -exchange      EXHF   =         0.00000000
  -V(xc)+E(xc)   XCENC  =      -901.91722124
  PAW double counting   =     12303.85264859   -10739.97191893
  entropy T*S    EENTRO =         0.01247582
  eigenvalues    EBANDS =      -508.22933225
  atomic energy  EATOM  =     13210.85262565
  Solvation  Ediel_sol  =         0.00000000
  ---------------------------------------------------
  free energy    TOTEN  =      -365.95033266 eV

  energy without entropy =     -365.96280849  energy(sigma->0) =     -365.95449127


--------------------------------------------------------------------------------------------------------




--------------------------------------- Iteration      1(   5)  ---------------------------------------


     EDDAV:  cpu time   16.4976: real time   16.5248
       DOS:  cpu time    0.0040: real time    0.0040
    CHARGE:  cpu time    0.2882: real time    0.2884
    MIXING:  cpu time    0.0012: real time    0.0014
    --------------------------------------------
      LOOP:  cpu time   16.7909: real time   16.8185

 eigenvalue-minimisations  : 28184
 total energy-change (2. order) :-0.2647880E+01  (-0.2609120E+01)
 number of electron     203.9999965 magnetization 
 augmentation part       23.2192368 magnetization 

 Broyden mixing:
  rms(total) = 0.80975E+01    rms(broyden)= 0.80975E+01
  rms(prec ) = 0.85326E+01
  weight for this iteration     100.00

 Free energy of the ion-electron system (eV)
  ---------------------------------------------------
  alpha Z        PSCENC =      1394.49509222
  Ewald energy   TEWEN  =    -12130.41111242
  -Hartree energ DENC   =     -2994.63359010
  -exchange      EXHF   =         0.00000000
  -V(xc)+E(xc)   XCENC  =      -901.91722124
  PAW double counting   =     12303.85264859   -10739.97191893
  entropy T*S    EENTRO =         0.01032217
  eigenvalues    EBANDS =      -510.87505880
  atomic energy  EATOM  =     13210.85262565
  Solvation  Ediel_sol  =         0.00000000
  ---------------------------------------------------
  free energy    TOTEN  =      -368.59821288 eV

  energy without entropy =     -368.60853504  energy(sigma->0) =     -368.60165360


--------------------------------------------------------------------------------------------------------




--------------------------------------- Iteration      1(   6)  ---------------------------------------


    POTLOK:  cpu time    0.0176: real time    0.0185
    SETDIJ:  cpu time    0.0066: real time    0.0066
     EDDAV:  cpu time   14.1033: real time   14.1228
       DOS:  cpu time    0.0042: real time    0.0042
    CHARGE:  cpu time    0.2887: real time    0.2889
    MIXING:  cpu time    0.0010: real time    0.0009
    --------------------------------------------
      LOOP:  cpu time   14.4213: real time   14.4419

 eigenvalue-minimisations  : 23448
 total energy-change (2. order) : 0.1103581E+02  (-0.1021515E+02)
 number of electron     203.9999960 magnetization 
 augmentation part       30.2271878 magnetization 

 Broyden mixing:
  rms(total) = 0.38445E+01    rms(broyden)= 0.38445E+01
  rms(prec ) = 0.52927E+01
  weight for this iteration     100.00

 eigenvalues of (default mixing * dielectric matrix)
  average eigenvalue GAMMA=   1.3683
  1.3683

 Free energy of the ion-electron system (eV)
  ---------------------------------------------------
  alpha Z        PSCENC =      1394.49509222
  Ewald energy   TEWEN  =    -12130.41111242
  -Hartree energ DENC   =     -2916.54652581
  -exchange      EXHF   =         0.00000000
  -V(xc)+E(xc)   XCENC  =      -899.41094559
  PAW double counting   =     16543.97480530   -14987.43698850
  entropy T*S    EENTRO =        -0.00821978
  eigenvalues    EBANDS =      -573.07113387
  atomic energy  EATOM  =     13210.85262565
  Solvation  Ediel_sol  =         0.00000000
  ---------------------------------------------------
  free energy    TOTEN  =      -357.56240281 eV

  energy without entropy =     -357.55418303  energy(sigma->0) =     -357.55966288


--------------------------------------------------------------------------------------------------------




--------------------------------------- Iteration      1(   7)  ---------------------------------------


    POTLOK:  cpu time    0.0109: real time    0.0116
    SETDIJ:  cpu time    0.0040: real time    0.0040
     EDDAV:  cpu time   14.0842: real time   14.1040
       DOS:  cpu time    0.0041: real time    0.0041
    CHARGE:  cpu time    0.2868: real time    0.2870
    MIXING:  cpu time    0.0006: real time    0.0006
    --------------------------------------------
      LOOP:  cpu time   14.3905: real time   14.4112

 eigenvalue-minimisations  : 23472
 total energy-change (2. order) :-0.1510745E+02  (-0.3521463E+02)
 number of electron     203.9999968 magnetization 
 augmentation part       24.6531533 magnetization 

 Broyden mixing:
  rms(total) = 0.27689E+01    rms(broyden)= 0.27688E+01
  rms(prec ) = 0.50415E+01
  weight for this iteration     100.00

 eigenvalues of (default mixing * dielectric matrix)
  average eigenvalue GAMMA=   1.0575
  1.6946  0.4204

 Free energy of the ion-electron system (eV)
  ---------------------------------------------------
  alpha Z        PSCENC =      1394.49509222
  Ewald energy   TEWEN  =    -12130.41111242
  -Hartree energ DENC   =     -2814.98312835
  -exchange      EXHF   =         0.00000000
  -V(xc)+E(xc)   XCENC  =      -900.44701758
  PAW double counting   =     18426.04316969   -16878.92309868
  entropy T*S    EENTRO =         0.01072173
  eigenvalues    EBANDS =      -679.30710938
  atomic energy  EATOM  =     13210.85262565
  Solvation  Ediel_sol  =         0.00000000
  ---------------------------------------------------
  free energy    TOTEN  =      -372.66985713 eV

  energy without entropy =     -372.68057886  energy(sigma->0) =     -372.67343104


--------------------------------------------------------------------------------------------------------




--------------------------------------- Iteration      1(   8)  ---------------------------------------


    POTLOK:  cpu time    0.0199: real time    0.0203
    SETDIJ:  cpu time    0.0064: real time    0.0064
     EDDAV:  cpu time   13.4983: real time   13.5174
       DOS:  cpu time    0.0041: real time    0.0041
    CHARGE:  cpu time    0.2902: real time    0.2904
    MIXING:  cpu time    0.0006: real time    0.0006
    --------------------------------------------
      LOOP:  cpu time   13.8195: real time   13.8392

 eigenvalue-minimisations  : 22352
 total energy-change (2. order) : 0.2020944E+02  (-0.3823684E+01)
 number of electron     203.9999967 magnetization 
 augmentation part       25.5400767 magnetization 

 Broyden mixing:
  rms(total) = 0.14999E+01    rms(broyden)= 0.14999E+01
  rms(prec ) = 0.25993E+01
  weight for this iteration     100.00

 eigenvalues of (default mixing * dielectric matrix)
  average eigenvalue GAMMA=   0.9528
  1.8268  0.5159  0.5159

 Free energy of the ion-electron system (eV)
  ---------------------------------------------------
  alpha Z        PSCENC =      1394.49509222
  Ewald energy   TEWEN  =    -12130.41111242
  -Hartree energ DENC   =     -2815.71814055
  -exchange      EXHF   =         0.00000000
  -V(xc)+E(xc)   XCENC  =      -898.36447572
  PAW double counting   =     20585.07472617   -19038.21104524
  entropy T*S    EENTRO =         0.00583340
  eigenvalues    EBANDS =      -660.18392239
  atomic energy  EATOM  =     13210.85262565
  Solvation  Ediel_sol  =         0.00000000
  ---------------------------------------------------
  free energy    TOTEN  =      -352.46041888 eV

  energy without entropy =     -352.46625228  energy(sigma->0) =     -352.46236334


--------------------------------------------------------------------------------------------------------




--------------------------------------- Iteration      1(   9)  ---------------------------------------


    POTLOK:  cpu time    0.0111: real time    0.0113
    SETDIJ:  cpu time    0.0033: real time    0.0034
     EDDAV:  cpu time   13.9494: real time   13.9688
       DOS:  cpu time    0.0040: real time    0.0040
    CHARGE:  cpu time    0.2909: real time    0.2912
    MIXING:  cpu time    0.0006: real time    0.0006
    --------------------------------------------
      LOOP:  cpu time   14.2594: real time   14.2792

 eigenvalue-minimisations  : 23184
 total energy-change (2. order) : 0.5055359E+01  (-0.1081796E+01)
 number of electron     203.9999966 magnetization 
 augmentation part       26.2238894 magnetization 

 Broyden mixing:
  rms(total) = 0.83747E+00    rms(broyden)= 0.83746E+00
  rms(prec ) = 0.14806E+01
  weight for this iteration     100.00

 eigenvalues of (default mixing * dielectric matrix)
  average eigenvalue GAMMA=   0.8820
  1.8880  0.6227  0.6227  0.3948

 Free energy of the ion-electron system (eV)
  ---------------------------------------------------
  alpha Z        PSCENC =      1394.49509222
  Ewald energy   TEWEN  =    -12130.41111242
  -Hartree energ DENC   =     -2824.88394301
  -exchange      EXHF   =         0.00000000
  -V(xc)+E(xc)   XCENC  =      -897.32778077
  PAW double counting   =     21217.05574293   -19668.03782935
  entropy T*S    EENTRO =         0.00182696
  eigenvalues    EBANDS =      -649.14968218
  atomic energy  EATOM  =     13210.85262565
  Solvation  Ediel_sol  =         0.00000000
  ---------------------------------------------------
  free energy    TOTEN  =      -347.40505997 eV

  energy without entropy =     -347.40688693  energy(sigma->0) =     -347.40566896


--------------------------------------------------------------------------------------------------------




--------------------------------------- Iteration      1(  10)  ---------------------------------------


    POTLOK:  cpu time    0.0181: real time    0.0233
    SETDIJ:  cpu time    0.0065: real time    0.0065
     EDDAV:  cpu time   14.5945: real time   14.6147
       DOS:  cpu time    0.0041: real time    0.0041
    CHARGE:  cpu time    0.2882: real time    0.2884
    MIXING:  cpu time    0.0007: real time    0.0007
    --------------------------------------------
      LOOP:  cpu time   14.9121: real time   14.9377

 eigenvalue-minimisations  : 24624
 total energy-change (2. order) : 0.8883283E+00  (-0.5256580E+00)
 number of electron     203.9999965 magnetization 
 augmentation part       26.8572480 magnetization 

 Broyden mixing:
  rms(total) = 0.47954E+00    rms(broyden)= 0.47953E+00
  rms(prec ) = 0.77441E+00
  weight for this iteration     100.00

 eigenvalues of (default mixing * dielectric matrix)
  average eigenvalue GAMMA=   0.8340
  1.9502  0.7064  0.7064  0.4669  0.3399

 Free energy of the ion-electron system (eV)
  ---------------------------------------------------
  alpha Z        PSCENC =      1394.49509222
  Ewald energy   TEWEN  =    -12130.41111242
  -Hartree energ DENC   =     -2829.58578921
  -exchange      EXHF   =         0.00000000
  -V(xc)+E(xc)   XCENC  =      -896.78753283
  PAW double counting   =     21546.65855905   -19995.58729159
  entropy T*S    EENTRO =        -0.00509878
[...]
  band No.  band energies     occupation 
      1     -46.9752      2.00000
      2     -46.9651      2.00000
      3     -46.9260      2.00000
      4     -46.8674      2.00000
      5     -46.8293      2.00000
      6     -46.7593      2.00000
      7     -23.5615      2.00000
      8     -23.4872      2.00000
      9     -23.4196      2.00000
     10     -23.3069      2.00000
     11     -23.1872      2.00000
     12     -23.1674      2.00000
     13     -23.1538      2.00000
     14     -23.1181      2.00000
     15     -23.1046      2.00000
     16     -23.0673      2.00000
     17     -23.0623      2.00000
     18     -23.0409      2.00000
     19     -22.9662      2.00000
     20     -22.9365      2.00000
     21     -22.8278      2.00000
     22     -22.7927      2.00000
     23     -22.7248      2.00000
     24     -22.5755      2.00000
     25       0.2812      2.00000
     26       0.7227      2.00000
     27       1.9685      2.00000
     28       2.3645      2.00000
     29       2.4692      2.00000
     30       2.6140      2.00000
     31       2.7098      2.00000
     32       2.7978      2.00000
     33       2.8288      2.00000
     34       2.9173      2.00000
     35       3.1028      2.00000
     36       3.1680      2.00000
     37       3.2371      2.00000
     38       3.2516      2.00000
     39       3.3538      2.00000
     40       3.3821      2.00000
     41       3.4491      2.00000
     42       3.5122      2.00000
     43       3.5953      2.00000
     44       3.6375      2.00000
     45       3.6715      2.00000
     46       3.7138      2.00000
     47       3.7854      2.00000
     48       3.8671      2.00000
     49       3.9956      2.00000
     50       4.0319      2.00000
     51       4.0861      2.00000
     52       4.1950      2.00000
     53       4.2216      2.00000
     54       4.3404      2.00000
     55       4.3754      2.00000
     56       4.4335      2.00000
     57       4.5016      2.00000
     58       4.5232      2.00000
     59       4.8063      2.00000
     60       4.8516      2.00000
     61       4.9348      2.00000
     62       5.0260      2.00000
     63       5.0619      2.00000
     64       5.1198      2.00000
     65       5.1917      2.00000
     66       5.2655      2.00000
     67       5.3269      2.00000
     68       5.3504      2.00000
     69       5.3808      2.00000
     70       5.4365      2.00000
     71       5.4656      2.00000
     72       5.4896      2.00000
     73       5.5261      2.00000
     74       5.5563      2.00000
     75       5.6385      2.00000
     76       5.6764      2.00000
     77       5.7424      2.00000
     78       5.8109      2.00000
     79       5.8733      2.00000
     80       5.9687      2.00000
     81       6.0114      2.00000
     82       6.0545      2.00000
     83       6.1149      2.00000
     84       6.1479      2.00000
     85       6.1994      2.00000
     86       6.2229      2.00000
     87       6.2950      2.00001
     88       6.3238      2.00002
     89       6.3620      2.00006
     90       6.4188      2.00032
     91       6.4491      2.00071
     92       6.5053      2.00268
     93       6.5449      2.00610
     94       6.5786      2.01139
     95       6.6308      2.02590
     96       6.6842      2.04866
     97       6.7598      2.07063
     98       6.8130      2.03220
     99       6.8540      1.93580
    100       6.8887      1.79269
    101       6.9512      1.39008
    102       7.0758      0.39850
    103       7.0855      0.33689
    104       7.1356      0.09135
    105       7.1820     -0.02827
    106       7.3555     -0.03012
    107       7.4125     -0.01273
    108       7.5418     -0.00084
    109       7.7589     -0.00000
    110       7.8519     -0.00000
    111       7.9434     -0.00000
    112       8.1314     -0.00000
    113       8.1935     -0.00000
    114       8.2831     -0.00000
    115       8.3885     -0.00000
    116       8.4223     -0.00000
    117       8.5193     -0.00000
    118       8.5344     -0.00000
    119       8.6271     -0.00000
    120       8.6879     -0.00000
    121       8.7790     -0.00000
    122       8.8593     -0.00000
    123       9.0026     -0.00000
    124       9.0604     -0.00000
    125       9.0951     -0.00000
    126       9.1461     -0.00000
    127       9.2254     -0.00000
    128       9.3153     -0.00000


--------------------------------------------------------------------------------------------------------


 soft charge-density along one line, spin component           1
         0         1         2         3         4         5         6         7         8         9
 total charge-density along one line
 
 pseudopotential strength for first ion, spin component:           1
  5.503 -20.768  -0.003  -0.001  -0.003   0.007   0.003   0.007
-20.768   9.664  -0.005  -0.002  -0.004   0.000   0.000   0.000
 -0.003  -0.005 -10.405   0.000   0.001   6.635   0.000  -0.001
 -0.001  -0.002   0.000 -10.404  -0.001   0.000   6.633   0.001
 -0.003  -0.004   0.001  -0.001 -10.405  -0.001   0.001   6.634
  0.007   0.000   6.635   0.000  -0.001   7.543   0.000   0.001
  0.003   0.000   0.000   6.633   0.001   0.000   7.545  -0.001
  0.007   0.000  -0.001   0.001   6.634   0.001  -0.001   7.543
  0.001   0.000  -0.002  -0.000  -0.003   0.003   0.000   0.004
  0.000  -0.000  -0.001  -0.003  -0.000   0.002   0.003   0.000
  0.000   0.000   0.001  -0.002   0.002  -0.002   0.002  -0.002
 -0.000  -0.000  -0.000  -0.003  -0.001   0.000   0.003   0.002
 -0.000   0.000   0.002  -0.000  -0.003  -0.003   0.000   0.003
  0.001   0.000  -0.003  -0.000  -0.004   0.004   0.000   0.005
  0.000  -0.000  -0.001  -0.004  -0.000   0.002   0.004   0.000
  0.000   0.001   0.002  -0.002   0.002  -0.002   0.003  -0.002
 -0.001  -0.000  -0.000  -0.003  -0.001   0.000   0.004   0.002
 -0.000   0.000   0.003  -0.000  -0.004  -0.004   0.000   0.004
 total augmentation occupancy for first ion, spin component:           1
  1.997  -0.033  -0.000   0.000  -0.000  -0.000   0.000   0.000   0.001   0.003   0.001  -0.006   0.000  -0.001  -0.002  -0.001
 -0.033   1.526  -0.002   0.003   0.000   0.006  -0.005   0.006   0.019   0.021  -0.026   0.000  -0.012  -0.009  -0.013   0.010
 -0.000  -0.002   1.999  -0.000   0.000  -0.022   0.000  -0.000   0.005   0.008   0.004  -0.002   0.005  -0.002  -0.004  -0.003
  0.000   0.003  -0.000   1.999   0.000   0.000  -0.022  -0.001  -0.000  -0.007  -0.003   0.001  -0.001  -0.000   0.004   0.002
 -0.000   0.000   0.000   0.000   1.999  -0.000  -0.001  -0.023  -0.011   0.001   0.002   0.007  -0.006   0.006  -0.000  -0.001
 -0.000   0.006  -0.022   0.000  -0.000   0.072   0.001   0.000  -0.001  -0.021  -0.007   0.007  -0.011   0.001   0.012   0.005
  0.000  -0.005   0.000  -0.022  -0.001   0.001   0.069   0.002   0.002   0.028   0.006   0.004   0.002  -0.002  -0.015   0.000
  0.000   0.006  -0.000  -0.001  -0.023   0.000   0.002   0.072   0.034  -0.000  -0.006  -0.020   0.014  -0.016  -0.001   0.001
  0.001   0.019   0.005  -0.000  -0.011  -0.001   0.002   0.034   3.126   0.023   0.010   0.076   0.002  -1.281  -0.021  -0.001
  0.003   0.021   0.008  -0.007   0.001  -0.021   0.028  -0.000   0.023   3.153   0.009   0.036  -0.002  -0.020  -1.282  -0.009
  0.001  -0.026   0.004  -0.003   0.002  -0.007   0.006  -0.006   0.010   0.009   2.705  -0.016  -0.002  -0.001  -0.009  -1.192
 -0.006   0.000  -0.002   0.001   0.007   0.007   0.004  -0.020   0.076   0.036  -0.016   3.189  -0.039  -0.033  -0.011   0.006
  0.000  -0.012   0.005  -0.001  -0.006  -0.011   0.002   0.014   0.002  -0.002  -0.002  -0.039   2.739  -0.001   0.011   0.007
 -0.001  -0.009  -0.002  -0.000   0.006   0.001  -0.002  -0.016  -1.281  -0.020  -0.001  -0.033  -0.001   0.539   0.012  -0.000
 -0.002  -0.013  -0.004   0.004  -0.000   0.012  -0.015  -0.001  -0.021  -1.282  -0.009  -0.011   0.011   0.012   0.536   0.006
 -0.001   0.010  -0.003   0.002  -0.001   0.005   0.000   0.001  -0.001  -0.009  -1.192   0.006   0.007  -0.000   0.006   0.534
  0.004  -0.008   0.000  -0.001  -0.003  -0.003  -0.001   0.011  -0.034  -0.011   0.006  -1.296   0.015   0.015   0.003  -0.002
 -0.000  -0.001  -0.004   0.000   0.003   0.008  -0.000  -0.004  -0.001   0.011   0.007   0.016  -1.203   0.000  -0.009  -0.006


------------------------ aborting loop because EDIFF is reached ----------------------------------------


    CHARGE:  cpu time    0.2891: real time    0.2894
    FORLOC:  cpu time    0.0034: real time    0.0034
    FORNL :  cpu time    1.7723: real time    1.7742
    STRESS:  cpu time    5.3310: real time    5.3370
    FORCOR:  cpu time    0.0140: real time    0.0144
    FORHAR:  cpu time    0.0053: real time    0.0053
    MIXING:  cpu time    0.0010: real time    0.0010
    OFIELD:  cpu time    0.0010: real time    0.0001

  FORCE on cell =-STRESS in cart. coord.  units (eV):
  Direction    XX          YY          ZZ          XY          YZ          ZX
  --------------------------------------------------------------------------------------
  Alpha Z  1394.49509  1394.49509  1394.49509
  Ewald   -4029.37308 -4006.15378 -4094.91548   -73.14959   148.74514   -21.89244
  Hartree   961.79649   970.53925   907.14014   -82.01223   115.95900   -20.55856
  E(xc)    -923.95273  -923.88949  -923.93056     0.40707     0.07783     0.01195
  Local    -288.46857  -321.22645  -168.25494   157.26646  -266.16087    42.06322
  n-local  -343.91457  -344.93681  -341.73045     3.12725    -1.42523    -0.70757
  augment   245.06099   245.19780   244.67830    -0.63538     0.30418     0.18024
  Kinetic  2988.78155  2990.30737  2986.87424    -3.80853     2.15467     0.46763
  Fock        0.00000     0.00000     0.00000     0.00000     0.00000     0.00000
  -------------------------------------------------------------------------------------
  Total       4.42516     4.33298     4.35633     1.19505    -0.34530    -0.43554
  in kB      14.69828    14.39211    14.46969     3.96938    -1.14692    -1.44665
  external pressure =       14.52 kB  Pullay stress =        0.00 kB


 VOLUME and BASIS-vectors are now :
 -----------------------------------------------------------------------------
  energy-cutoff  :      400.00
  volume of cell :      482.36
      direct lattice vectors                 reciprocal lattice vectors
     0.000000000  0.000000000  6.360000000    -0.020964361 -0.052410901  0.157232704
     7.950000000  1.590000000  1.590000000     0.125786164  0.000000000  0.000000000
     0.000000000  9.540000000  3.180000000    -0.020964361  0.104821803  0.000000000

  length of vectors
     6.360000000  8.261882352 10.056042959     0.167058464  0.125786164  0.106897684


 FORCES acting on ions
    electron-ion (+dipol)            ewald-force                    non-local-force                 convergence-correction
 -----------------------------------------------------------------------------------------------
   0.934E+02 0.114E+03 -.439E+02   -.940E+02 -.114E+03 0.432E+02   -.123E+00 -.306E+00 0.393E+00   -.304E-01 -.335E-01 -.679E-02
   -.422E+02 -.240E+03 0.918E+02   0.419E+02 0.241E+03 -.918E+02   -.525E-01 -.142E+00 -.148E+00   -.367E-01 0.758E-01 -.485E-01
   -.848E+02 0.224E+03 -.846E+02   0.844E+02 -.224E+03 0.845E+02   0.260E+00 0.282E+00 0.194E-01   -.189E-01 -.731E-01 -.247E-01
   0.217E+03 -.508E+02 -.132E+03   -.217E+03 0.495E+02 0.132E+03   0.134E+00 0.546E+00 -.315E+00   -.697E-01 0.528E-01 -.613E-02
   0.758E+02 0.167E+03 0.209E+03   -.759E+02 -.166E+03 -.209E+03   -.963E-01 -.332E+00 0.461E+00   -.845E-03 -.641E-01 0.379E-01
   -.163E+03 -.136E+03 -.841E+02   0.164E+03 0.137E+03 0.841E+02   -.170E+00 -.448E+00 0.507E-01   0.434E-01 -.724E-02 -.102E-01
   0.116E+02 0.274E+02 0.201E+02   -.119E+02 -.276E+02 -.199E+02   -.651E-02 0.173E+00 0.186E+00   -.100E-01 0.420E-02 0.760E-03
   -.249E+02 -.788E+02 -.424E+02   0.250E+02 0.794E+02 0.424E+02   0.403E-01 0.470E-01 0.374E-01   -.309E-03 0.508E-01 0.223E-01
   -.171E+01 -.371E+01 0.249E+01   0.156E+01 0.376E+01 -.260E+01   -.158E+00 -.685E-02 -.670E-01   -.247E-01 0.556E-02 -.375E-01
   -.971E+02 0.360E+02 -.898E+02   0.973E+02 -.361E+02 0.898E+02   -.592E-02 0.251E+00 -.838E-01   0.367E-01 -.125E-01 0.193E-01
   -.127E+03 0.306E+02 0.898E+02   0.128E+03 -.308E+02 -.898E+02   0.182E+00 0.211E+00 0.106E+00   0.152E-01 -.229E-01 -.188E-01
   0.232E+02 0.744E+02 0.285E+02   -.235E+02 -.742E+02 -.287E+02   -.214E+00 0.373E-01 -.426E-01   -.146E-03 -.258E-01 0.189E-01
   -.730E+02 -.611E+02 -.822E+02   0.728E+02 0.607E+02 0.827E+02   0.265E-01 0.460E-01 0.389E+00   0.106E-01 0.218E-01 0.151E-01
   -.521E+02 -.913E+02 0.822E+02   0.520E+02 0.909E+02 -.827E+02   -.259E+00 0.199E+00 -.381E+00   0.771E-02 0.246E-01 -.151E-01
   0.424E+02 0.217E+02 0.524E+02   -.421E+02 -.222E+02 -.519E+02   -.839E-01 0.158E-01 -.824E-01   -.861E-02 -.252E-01 -.164E-01
   -.316E+02 -.562E+02 0.182E+00   0.315E+02 0.561E+02 -.176E+00   0.229E+00 0.235E+00 -.584E-02   0.873E-02 0.237E-01 0.593E-02
   0.196E+02 -.111E+02 -.595E+02   -.191E+02 0.111E+02 0.595E+02   0.328E+00 0.221E-01 -.116E+00   0.569E-02 0.847E-02 0.600E-02
   -.459E+02 0.563E+02 0.325E+02   0.460E+02 -.563E+02 -.325E+02   0.412E-01 0.292E+00 -.106E-02   0.191E-01 -.211E-01 0.932E-02
   0.560E+02 0.554E+02 -.418E+02   -.560E+02 -.556E+02 0.415E+02   -.833E-01 -.545E-01 -.180E+00   -.506E-02 -.249E-01 0.143E-01
   0.117E+02 -.302E+01 -.138E+00   -.115E+02 0.307E+01 0.141E+00   -.369E+00 -.132E+00 0.423E-01   0.829E-03 0.187E-01 -.508E-02
   0.271E+02 0.552E+02 -.640E+02   -.274E+02 -.547E+02 0.645E+02   0.161E+00 0.809E-01 -.551E-01   -.560E-02 -.260E-01 -.120E-01
   0.321E+02 -.803E+01 0.476E+02   -.316E+02 0.797E+01 -.476E+02   -.893E-01 0.542E-01 0.153E+00   0.229E-02 0.684E-02 -.531E-02
   0.192E+02 -.338E+02 0.213E+02   -.197E+02 0.343E+02 -.216E+02   -.393E-01 0.313E-01 0.437E-01   0.729E-02 0.542E-03 -.995E-02
   0.144E+02 0.749E+02 -.189E+02   -.148E+02 -.748E+02 0.191E+02   -.147E+00 -.851E-01 0.145E-01   -.229E-02 -.246E-01 -.129E-01
   0.499E+02 -.173E+02 -.183E+02   -.498E+02 0.175E+02 0.184E+02   0.508E-01 -.313E+00 -.764E-01   -.275E-02 0.131E-01 0.123E-01
   0.155E+02 -.240E+02 0.184E+02   -.157E+02 0.241E+02 -.184E+02   0.362E+00 -.397E+00 0.105E+00   -.307E-02 0.351E-02 -.121E-01
   -.172E+02 0.269E+02 -.258E+01   0.175E+02 -.270E+02 0.260E+01   -.335E+00 -.136E+00 0.164E+00   -.137E-02 0.102E-01 0.381E-01
   0.101E+03 -.529E+02 0.608E+02   -.101E+03 0.528E+02 -.610E+02   0.159E+00 -.256E+00 -.191E+00   -.236E-01 0.390E-01 0.480E-02
   0.175E+01 -.594E+02 -.323E+02   -.203E+01 0.593E+02 0.323E+02   0.218E+00 0.281E+00 0.211E+00   0.624E-02 -.649E-03 0.152E-01
   -.514E+02 -.358E+02 0.388E+02   0.522E+02 0.361E+02 -.388E+02   0.348E+00 -.959E-01 0.142E-01   0.195E-01 0.555E-02 0.361E-02
 -----------------------------------------------------------------------------------------------
   -.236E+00 -.794E-01 -.597E+00   0.782E-13 -.135E-12 0.121E-12   0.307E+00 0.985E-01 0.645E+00   -.609E-01 0.343E-02 -.177E-01
 
 
 POSITION                                       TOTAL-FORCE (eV/Angst)
 -----------------------------------------------------------------------------------
      0.00000      0.00000      0.00000        -0.689364     -0.484499     -0.276859
      0.00000      3.18000      6.36000        -0.380986      0.680425     -0.153549
      3.18000      6.36000      3.18000        -0.149604     -0.193622     -0.072673
      6.36000      3.18000      3.18000        -0.206007     -0.720263      0.265969
      1.59000      7.95000      7.95000        -0.134621      0.386684     -0.400926
      3.18000      9.54000      9.54000         1.041990     -0.216773     -0.014997
      0.00000      0.00000      3.18000        -0.300613     -0.058710      0.352948
      0.00000      3.18000      3.18000         0.163286      0.658263      0.002102
      1.59000      4.77000      4.77000        -0.325563      0.049054     -0.223584
      4.77000      7.95000      4.77000         0.186283      0.144078     -0.062006
      4.77000      7.95000      7.95000         0.452279      0.025232      0.077800
      6.36000      9.54000      9.54000        -0.587207      0.232521     -0.157701
      1.59000      1.59000      1.59000        -0.219543     -0.416486      0.899294
      1.59000      1.59000      4.77000        -0.431195     -0.238776     -0.896780
      0.00000      6.36000      6.36000         0.183937     -0.514860      0.423968
      3.18000      3.18000      6.36000         0.158508      0.227185      0.005034
      4.77000      4.77000      4.77000         0.758214      0.009432     -0.063956
      3.18000      6.36000      6.36000         0.118201      0.200879     -0.015702
      0.00000      6.36000      3.18000        -0.066485     -0.326285     -0.416977
      3.18000      3.18000      3.18000        -0.161420     -0.068400      0.038360
      1.59000      7.95000      4.77000        -0.173520      0.622107      0.386336
      4.77000      4.77000      7.95000         0.398573      0.003611      0.163981
      6.36000      6.36000      6.36000        -0.484589      0.435824     -0.185845
      6.36000      9.54000      6.36000        -0.551898      0.020624      0.170973
      4.77000      1.59000      1.59000         0.119777     -0.069490     -0.056508
      4.77000      1.59000      4.77000         0.198099     -0.240839      0.103909
      1.59000      4.77000      7.95000        -0.062704     -0.236280      0.220390
      6.36000      3.18000      6.36000         0.040736     -0.305154     -0.421929
      6.36000      6.36000      3.18000        -0.059466      0.244037      0.292023
      3.18000      9.54000      6.36000         1.164901      0.150482      0.016904
 -----------------------------------------------------------------------------------
    total drift:                                0.010311      0.022502      0.030559


--------------------------------------------------------------------------------------------------------



  FREE ENERGIE OF THE ION-ELECTRON SYSTEM (eV)
  ---------------------------------------------------
  free  energy   TOTEN  =      -346.23440341 eV

  energy  without entropy=     -346.22473274  energy(sigma->0) =     -346.23117986
 


--------------------------------------------------------------------------------------------------------


    POTLOK:  cpu time    0.0119: real time    0.0128


--------------------------------------------------------------------------------------------------------


 stress matrix after NEB project (eV)
      4.42516      1.19505     -0.43554
      1.19505      4.33298     -0.34530
     -0.43554     -0.34530      4.35633
  FORCES: max atom, RMS     1.174702    0.639712
  FORCE total and by dimension    3.503846    1.164901
  Stress total and by dimension    7.797978    4.425155
 writing wavefunctions
     LOOP+:  cpu time  291.6405: real time  297.0713
    4ORBIT:  cpu time    0.0000: real time    0.0000

 total amount of memory used by VASP MPI-rank0    75199. kBytes
=======================================================================

   base      :      30000. kBytes
   nonlr-proj:       4012. kBytes
   fftplans  :       1052. kBytes
   grid      :       1949. kBytes
   one-center:        124. kBytes
   wavefun   :      38062. kBytes
 
  
  
 General timing and accounting informations for this job:
 ========================================================
  
                  Total CPU time used (sec):      298.277
                            User time (sec):      293.797
                          System time (sec):        4.480
                         Elapsed time (sec):      304.104
  
                   Maximum memory used (kb):      117776.
                   Average memory used (kb):           0.
  
                          Minor page faults:        35170
                          Major page faults:            5
                 Voluntary context switches:          976
