 running on   32 total cores
 distrk:  each k-point on   32 cores,    1 groups
 distr:  one band on    4 cores,    8 groups
 using from now: INCAR     
 vasp.5.4.4.18Apr17-6-g9f103f2a35 (build Aug 09 2018 16:20:53) complex          
  
 POSCAR found type information on POSCAR  Nb Mo Ta Ti W 
 POSCAR found :  5 types and      30 ions
 scaLAPACK will be used

 ----------------------------------------------------------------------------- 
|                                                                             |
|  ADVICE TO THIS USER RUNNING 'VASP/VAMP'   (HEAR YOUR MASTER'S VOICE ...):  |
|                                                                             |
|      You enforced a specific xc-type in the INCAR file,                     |
|      a different type was found on the POTCAR file                          |
|          I HOPE YOU KNOW, WHAT YOU ARE  DOING                               |
|                                                                             |
 ----------------------------------------------------------------------------- 

 LDA part: xc-table for Pade appr. of Perdew
 POSCAR found type information on POSCAR  Nb Mo Ta Ti W 
 POSCAR found :  5 types and      30 ions
 POSCAR, INCAR and KPOINTS ok, starting setup
 FFT: planning ...
 WAVECAR not read
 entering main loop
       N       E                     dE             d eps       ncg     rms          rms(c)
DAV:   1     0.163339127416E+04    0.16334E+04   -0.75341E+04 16168   0.124E+03
DAV:   2    -0.484492638280E+02   -0.16818E+04   -0.16167E+04 16128   0.399E+02
DAV:   3    -0.334279843534E+03   -0.28583E+03   -0.26824E+03 28400   0.139E+02
DAV:   4    -0.365950332661E+03   -0.31670E+02   -0.29819E+02 25568   0.433E+01
DAV:   5    -0.368598212876E+03   -0.26479E+01   -0.26091E+01 28184   0.152E+01    0.810E+01
DAV:   6    -0.357562402812E+03    0.11036E+02   -0.10215E+02 23448   0.278E+01    0.384E+01
DAV:   7    -0.372669857129E+03   -0.15107E+02   -0.35215E+02 23472   0.672E+01    0.277E+01
DAV:   8    -0.352460418877E+03    0.20209E+02   -0.38237E+01 22352   0.168E+01    0.150E+01
DAV:   9    -0.347405059972E+03    0.50554E+01   -0.10818E+01 23184   0.100E+01    0.837E+00
DAV:  10    -0.346516731639E+03    0.88833E+00   -0.52566E+00 24624   0.631E+00    0.480E+00
DAV:  11    -0.346294919948E+03    0.22181E+00   -0.22097E+00 23384   0.397E+00    0.258E+00
DAV:  12    -0.346287654362E+03    0.72656E-02   -0.80805E-01 24136   0.261E+00    0.187E+00
DAV:  13    -0.346261856345E+03    0.25798E-01   -0.60018E-01 24608   0.217E+00    0.129E+00
DAV:  14    -0.346237662038E+03    0.24194E-01   -0.19618E-01 25096   0.128E+00    0.654E-01
DAV:  15    -0.346238605599E+03   -0.94356E-03   -0.64939E-02 23848   0.698E-01    0.591E-01
DAV:  16    -0.346236884493E+03    0.17211E-02   -0.25299E-02 23496   0.445E-01    0.419E-01
DAV:  17    -0.346234996226E+03    0.18883E-02   -0.10444E-02 21688   0.289E-01    0.205E-01
DAV:  18    -0.346234473528E+03    0.52270E-03   -0.50354E-03 21856   0.206E-01    0.921E-02
DAV:  19    -0.346234411743E+03    0.61786E-04   -0.13108E-03 20360   0.108E-01    0.530E-02
DAV:  20    -0.346234403411E+03    0.83322E-05   -0.35959E-04 14992   0.662E-02
   1 F= -.34623440E+03 E0= -.34623118E+03  d E =-.967067E-02
 writing wavefunctions
VASP is done!
