<?xml version="1.0" encoding="ISO-8859-1"?>
<modeling>
 <generator>
  <i name="program" type="string">vasp </i>
  <i name="version" type="string">5.4.4.18Apr17-6-g9f103f2a35  </i>
  <i name="subversion" type="string">(build Aug 09 2018 16:20:53) complex            parallel </i>
  <i name="platform" type="string">LinuxIFC </i>
  <i name="date" type="string">2020 04 12 </i>
  <i name="time" type="string">14:10:29 </i>
 </generator>
 <incar>
  <i type="string" name="SYSTEM"> Nb - Mo - Ta - Ti - W SQS</i>
  <i type="string" name="PREC">normal</i>
  <i type="int" name="IALGO">    38</i>
  <i type="int" name="ICHARG">     2</i>
  <i type="int" name="IBRION">     1</i>
  <i type="int" name="ISYM">     0</i>
  <i name="ENCUT">    400.00000000</i>
  <i type="string" name="LREAL"> Auto</i>
  <i type="int" name="ISMEAR">     1</i>
  <i name="SIGMA">      0.20000000</i>
  <v type="int" name="KPOINT_BSE">    -1     0     0     0</v>
  <i type="string" name="GGA"> PS</i>
 </incar>
 <structure name="primitive_cell" >
  <crystal>
   <varray name="basis" >
    <v>       0.00000000       0.00000000       6.36000000 </v>
    <v>       7.95000000       1.59000000       1.59000000 </v>
    <v>       0.00000000       9.54000000       3.18000000 </v>
   </varray>
   <i name="volume">    482.36148000 </i>
   <varray name="rec_basis" >
    <v>      -0.02096436      -0.05241090       0.15723270 </v>
    <v>       0.12578616       0.00000000       0.00000000 </v>
    <v>      -0.02096436       0.10482180       0.00000000 </v>
   </varray>
  </crystal>
  <varray name="positions" >
   <v>       0.00000000       0.00000000       0.00000000 </v>
   <v>      -0.13333333      -0.20000000      -0.13333333 </v>
   <v>       0.13333333       0.20000000       0.13333333 </v>
   <v>      -0.36666667       0.20000000       0.13333333 </v>
   <v>       0.30000000       0.20000000      -0.20000000 </v>
   <v>       0.36666667      -0.20000000      -0.13333333 </v>
   <v>      -0.30000000      -0.20000000       0.20000000 </v>
   <v>       0.20000000      -0.20000000       0.20000000 </v>
   <v>      -0.20000000       0.20000000      -0.20000000 </v>
   <v>      -0.16666667       0.00000000       0.33333333 </v>
   <v>       0.16666667       0.00000000      -0.33333333 </v>
   <v>      -0.06666667       0.40000000      -0.06666667 </v>
   <v>       0.06666667      -0.40000000       0.06666667 </v>
   <v>      -0.50000000       0.00000000       0.00000000 </v>
   <v>       0.33333333       0.00000000       0.33333333 </v>
   <v>      -0.33333333       0.00000000      -0.33333333 </v>
   <v>      -0.43333333      -0.40000000       0.06666667 </v>
   <v>       0.43333333       0.40000000      -0.06666667 </v>
   <v>       0.10000000       0.40000000      -0.40000000 </v>
   <v>      -0.10000000      -0.40000000       0.40000000 </v>
   <v>       0.23333333      -0.40000000      -0.26666667 </v>
   <v>      -0.23333333       0.40000000       0.26666667 </v>
   <v>      -0.03333333       0.20000000       0.46666667 </v>
   <v>       0.03333333      -0.20000000      -0.46666667 </v>
   <v>       0.46666667       0.20000000       0.46666667 </v>
   <v>      -0.46666667      -0.20000000      -0.46666667 </v>
   <v>      -0.26666667      -0.40000000      -0.26666667 </v>
   <v>       0.26666667       0.40000000       0.26666667 </v>
   <v>       0.40000000      -0.40000000       0.40000000 </v>
   <v>      -0.40000000       0.40000000      -0.40000000 </v>
  </varray>
 </structure>
 <varray name="primitive_index" >
  <v type="int" >        1 </v>
  <v type="int" >       12 </v>
  <v type="int" >       13 </v>
  <v type="int" >       14 </v>
  <v type="int" >       21 </v>
  <v type="int" >       24 </v>
  <v type="int" >       28 </v>
  <v type="int" >        4 </v>
  <v type="int" >        5 </v>
  <v type="int" >        2 </v>
  <v type="int" >       19 </v>
  <v type="int" >        6 </v>
  <v type="int" >       25 </v>
  <v type="int" >        7 </v>
  <v type="int" >        8 </v>
  <v type="int" >       15 </v>
  <v type="int" >       26 </v>
  <v type="int" >       30 </v>
  <v type="int" >        3 </v>
  <v type="int" >       22 </v>
  <v type="int" >       10 </v>
  <v type="int" >       16 </v>
  <v type="int" >       27 </v>
  <v type="int" >       29 </v>
  <v type="int" >        9 </v>
  <v type="int" >       23 </v>
  <v type="int" >       11 </v>
  <v type="int" >       20 </v>
  <v type="int" >       17 </v>
  <v type="int" >       18 </v>
 </varray>
 <kpoints>
  <generation param="Gamma">
   <v type="int" name="divisions">       5        5        5 </v>
   <v name="usershift">      0.00000000       0.00000000       0.00000000 </v>
   <v name="genvec1">      0.20000000       0.00000000      -0.00000000 </v>
   <v name="genvec2">      0.00000000       0.20000000       0.00000000 </v>
   <v name="genvec3">      0.00000000       0.00000000       0.20000000 </v>
   <v name="shift">      0.00000000       0.00000000       0.00000000 </v>
  </generation>
  <varray name="kpointlist" >
   <v>       0.00000000       0.00000000       0.00000000 </v>
   <v>       0.20000000      -0.00000000       0.00000000 </v>
   <v>       0.40000000      -0.00000000       0.00000000 </v>
   <v>       0.00000000       0.20000000       0.00000000 </v>
   <v>       0.20000000       0.20000000       0.00000000 </v>
   <v>       0.40000000       0.20000000       0.00000000 </v>
   <v>      -0.40000000       0.20000000      -0.00000000 </v>
   <v>      -0.20000000       0.20000000      -0.00000000 </v>
   <v>       0.00000000       0.40000000       0.00000000 </v>
   <v>       0.20000000       0.40000000       0.00000000 </v>
   <v>       0.40000000       0.40000000       0.00000000 </v>
   <v>      -0.40000000       0.40000000      -0.00000000 </v>
   <v>      -0.20000000       0.40000000      -0.00000000 </v>
   <v>       0.00000000       0.00000000       0.20000000 </v>
   <v>       0.20000000      -0.00000000       0.20000000 </v>
   <v>       0.40000000       0.00000000       0.20000000 </v>
   <v>      -0.40000000       0.00000000       0.20000000 </v>
   <v>      -0.20000000       0.00000000       0.20000000 </v>
   <v>       0.00000000       0.20000000       0.20000000 </v>
   <v>       0.20000000       0.20000000       0.20000000 </v>
   <v>       0.40000000       0.20000000       0.20000000 </v>
   <v>      -0.40000000       0.20000000       0.20000000 </v>
   <v>      -0.20000000       0.20000000       0.20000000 </v>
   <v>       0.00000000       0.40000000       0.20000000 </v>
   <v>       0.20000000       0.40000000       0.20000000 </v>
   <v>       0.40000000       0.40000000       0.20000000 </v>
   <v>      -0.40000000       0.40000000       0.20000000 </v>
   <v>      -0.20000000       0.40000000       0.20000000 </v>
   <v>       0.00000000      -0.40000000       0.20000000 </v>
   <v>       0.20000000      -0.40000000       0.20000000 </v>
   <v>       0.40000000      -0.40000000       0.20000000 </v>
   <v>      -0.40000000      -0.40000000       0.20000000 </v>
   <v>      -0.20000000      -0.40000000       0.20000000 </v>
   <v>       0.00000000      -0.20000000       0.20000000 </v>
   <v>       0.20000000      -0.20000000       0.20000000 </v>
   <v>       0.40000000      -0.20000000       0.20000000 </v>
   <v>      -0.40000000      -0.20000000       0.20000000 </v>
   <v>      -0.20000000      -0.20000000       0.20000000 </v>
   <v>       0.00000000       0.00000000       0.40000000 </v>
   <v>       0.20000000       0.00000000       0.40000000 </v>
   <v>       0.40000000      -0.00000000       0.40000000 </v>
   <v>      -0.40000000       0.00000000       0.40000000 </v>
   <v>      -0.20000000      -0.00000000       0.40000000 </v>
   <v>       0.00000000       0.20000000       0.40000000 </v>
   <v>       0.20000000       0.20000000       0.40000000 </v>
   <v>       0.40000000       0.20000000       0.40000000 </v>
   <v>      -0.40000000       0.20000000       0.40000000 </v>
   <v>      -0.20000000       0.20000000       0.40000000 </v>
   <v>       0.00000000       0.40000000       0.40000000 </v>
   <v>       0.20000000       0.40000000       0.40000000 </v>
   <v>       0.40000000       0.40000000       0.40000000 </v>
   <v>      -0.40000000       0.40000000       0.40000000 </v>
   <v>      -0.20000000       0.40000000       0.40000000 </v>
   <v>       0.00000000      -0.40000000       0.40000000 </v>
   <v>       0.20000000      -0.40000000       0.40000000 </v>
   <v>       0.40000000      -0.40000000       0.40000000 </v>
   <v>      -0.40000000      -0.40000000       0.40000000 </v>
   <v>      -0.20000000      -0.40000000       0.40000000 </v>
   <v>       0.00000000      -0.20000000       0.40000000 </v>
   <v>       0.20000000      -0.20000000       0.40000000 </v>
   <v>       0.40000000      -0.20000000       0.40000000 </v>
   <v>      -0.40000000      -0.20000000       0.40000000 </v>
   <v>      -0.20000000      -0.20000000       0.40000000 </v>
  </varray>
  <varray name="weights" >
   <v>       0.00800000 </v>
   <v>       0.01600000 </v>
   <v>       0.01600000 </v>
   <v>       0.01600000 </v>
   <v>       0.01600000 </v>
   <v>       0.01600000 </v>
   <v>       0.01600000 </v>
   <v>       0.01600000 </v>
   <v>       0.01600000 </v>
   <v>       0.01600000 </v>
   <v>       0.01600000 </v>
   <v>       0.01600000 </v>
   <v>       0.01600000 </v>
   <v>       0.01600000 </v>
   <v>       0.01600000 </v>
   <v>       0.01600000 </v>
   <v>       0.01600000 </v>
   <v>       0.01600000 </v>
   <v>       0.01600000 </v>
   <v>       0.01600000 </v>
   <v>       0.01600000 </v>
   <v>       0.01600000 </v>
   <v>       0.01600000 </v>
   <v>       0.01600000 </v>
   <v>       0.01600000 </v>
   <v>       0.01600000 </v>
   <v>       0.01600000 </v>
   <v>       0.01600000 </v>
   <v>       0.01600000 </v>
   <v>       0.01600000 </v>
   <v>       0.01600000 </v>
   <v>       0.01600000 </v>
   <v>       0.01600000 </v>
   <v>       0.01600000 </v>
   <v>       0.01600000 </v>
   <v>       0.01600000 </v>
   <v>       0.01600000 </v>
   <v>       0.01600000 </v>
   <v>       0.01600000 </v>
   <v>       0.01600000 </v>
   <v>       0.01600000 </v>
   <v>       0.01600000 </v>
   <v>       0.01600000 </v>
   <v>       0.01600000 </v>
   <v>       0.01600000 </v>
   <v>       0.01600000 </v>
   <v>       0.01600000 </v>
   <v>       0.01600000 </v>
   <v>       0.01600000 </v>
   <v>       0.01600000 </v>
   <v>       0.01600000 </v>
   <v>       0.01600000 </v>
   <v>       0.01600000 </v>
   <v>       0.01600000 </v>
   <v>       0.01600000 </v>
   <v>       0.01600000 </v>
   <v>       0.01600000 </v>
   <v>       0.01600000 </v>
   <v>       0.01600000 </v>
   <v>       0.01600000 </v>
   <v>       0.01600000 </v>
   <v>       0.01600000 </v>
   <v>       0.01600000 </v>
  </varray>
 </kpoints>
 <parameters>
  <separator name="general" >
   <i type="string" name="SYSTEM">Nb - Mo - Ta - Ti - W SQS</i>
   <i type="logical" name="LCOMPAT"> F  </i>
  </separator>
  <separator name="electronic" >
   <i type="string" name="PREC">normal</i>
   <i name="ENMAX">    400.00000000</i>
   <i name="ENAUG">    455.65900000</i>
   <i name="EDIFF">      0.00010000</i>
   <i type="int" name="IALGO">    38</i>
   <i type="int" name="IWAVPR">    10</i>
   <i type="int" name="NBANDS">   128</i>
   <i name="NELECT">    204.00000000</i>
   <i type="int" name="TURBO">     0</i>
   <i type="int" name="IRESTART">     0</i>
   <i type="int" name="NREBOOT">     0</i>
   <i type="int" name="NMIN">     0</i>
   <i name="EREF">      0.00000000</i>
   <separator name="electronic smearing" >
    <i type="int" name="ISMEAR">     1</i>
    <i name="SIGMA">      0.20000000</i>
    <i name="KSPACING">      0.50000000</i>
    <i type="logical" name="KGAMMA"> T  </i>
   </separator>
   <separator name="electronic projectors" >
    <i type="logical" name="LREAL"> T  </i>
    <v name="ROPT">     -0.00050000     -0.00050000     -0.00050000     -0.00050000     -0.00050000</v>
    <i type="int" name="LMAXPAW">  -100</i>
    <i type="int" name="LMAXMIX">     2</i>
    <i type="logical" name="NLSPLINE"> F  </i>
   </separator>
   <separator name="electronic startup" >
    <i type="int" name="ISTART">     0</i>
    <i type="int" name="ICHARG">     2</i>
    <i type="int" name="INIWAV">     1</i>
   </separator>
   <separator name="electronic spin" >
    <i type="int" name="ISPIN">     1</i>
    <i type="logical" name="LNONCOLLINEAR"> F  </i>
    <v name="MAGMOM">      1.00000000      1.00000000      1.00000000      1.00000000      1.00000000      1.00000000      1.00000000      1.00000000      1.00000000      1.00000000      1.00000000      1.00000000      1.00000000      1.00000000      1.00000000      1.00000000      1.00000000      1.00000000      1.00000000      1.00000000
      1.00000000      1.00000000      1.00000000      1.00000000      1.00000000      1.00000000      1.00000000      1.00000000      1.00000000      1.00000000</v>
    <i name="NUPDOWN">     -1.00000000</i>
    <i type="logical" name="LSORBIT"> F  </i>
    <v name="SAXIS">      0.00000000      0.00000000      1.00000000</v>
    <i type="logical" name="LSPIRAL"> F  </i>
    <v name="QSPIRAL">      0.00000000      0.00000000      0.00000000</v>
    <i type="logical" name="LZEROZ"> F  </i>
   </separator>
   <separator name="electronic exchange-correlation" >
    <i type="logical" name="LASPH"> F  </i>
    <i type="logical" name="LMETAGGA"> F  </i>
   </separator>
   <separator name="electronic convergence" >
    <i type="int" name="NELM">    60</i>
    <i type="int" name="NELMDL">    -5</i>
    <i type="int" name="NELMIN">     2</i>
    <i name="ENINI">    400.00000000</i>
    <separator name="electronic convergence detail" >
     <i type="logical" name="LDIAG"> T  </i>
     <i type="logical" name="LSUBROT"> F  </i>
     <i name="WEIMIN">      0.00000000</i>
     <i name="EBREAK">      0.00000020</i>
     <i name="DEPER">      0.30000000</i>
     <i type="int" name="NRMM">     4</i>
     <i name="TIME">      0.40000000</i>
    </separator>
   </separator>
   <separator name="electronic mixer" >
    <i name="AMIX">      0.40000000</i>
    <i name="BMIX">      1.00000000</i>
    <i name="AMIN">      0.10000000</i>
    <i name="AMIX_MAG">      1.60000000</i>
    <i name="BMIX_MAG">      1.00000000</i>
    <separator name="electronic mixer details" >
     <i type="int" name="IMIX">     4</i>
     <i type="logical" name="MIXFIRST"> F  </i>
     <i type="int" name="MAXMIX">   -45</i>
     <i name="WC">    100.00000000</i>
     <i type="int" name="INIMIX">     1</i>
     <i type="int" name="MIXPRE">     1</i>
     <i type="int" name="MREMOVE">     5</i>
    </separator>
   </separator>
   <separator name="electronic dipolcorrection" >
    <i type="logical" name="LDIPOL"> F  </i>
    <i type="logical" name="LMONO"> F  </i>
    <i type="int" name="IDIPOL">     0</i>
    <i name="EPSILON">      1.00000000</i>
    <v name="DIPOL">   -100.00000000   -100.00000000   -100.00000000</v>
    <i name="EFIELD">      0.00000000</i>
   </separator>
  </separator>
  <separator name="grids" >
   <i type="int" name="NGX">    32</i>
   <i type="int" name="NGY">    40</i>
   <i type="int" name="NGZ">    50</i>
   <i type="int" name="NGXF">    64</i>
   <i type="int" name="NGYF">    80</i>
   <i type="int" name="NGZF">   100</i>
   <i type="logical" name="ADDGRID"> F  </i>
  </separator>
  <separator name="ionic" >
   <i type="int" name="NSW">     0</i>
   <i type="int" name="IBRION">    -1</i>
   <i type="int" name="MDALGO">     0</i>
   <i type="int" name="ISIF">     2</i>
   <i name="PSTRESS">      0.00000000</i>
   <i name="EDIFFG">      0.00100000</i>
   <i type="int" name="NFREE">     0</i>
   <i name="POTIM">      0.50000000</i>
   <i name="SMASS">     -3.00000000</i>
   <i name="SCALEE">      1.00000000</i>
  </separator>
  <separator name="ionic md" >
   <i name="TEBEG">      0.00010000</i>
   <i name="TEEND">      0.00010000</i>
   <i type="int" name="NBLOCK">     1</i>
   <i type="int" name="KBLOCK">     1</i>
   <i type="int" name="NPACO">   256</i>
   <i name="APACO">     16.00000000</i>
  </separator>
  <separator name="symmetry" >
   <i type="int" name="ISYM">     0</i>
   <i name="SYMPREC">      0.00001000</i>
  </separator>
  <separator name="dos" >
   <i type="int" name="LORBIT">     0</i>
   <v name="RWIGS">     -1.00000000     -1.00000000     -1.00000000     -1.00000000     -1.00000000</v>
   <i type="int" name="NEDOS">   301</i>
   <i name="EMIN">     10.00000000</i>
   <i name="EMAX">    -10.00000000</i>
   <i name="EFERMI">      0.00000000</i>
  </separator>
  <separator name="writing" >
   <i type="int" name="NWRITE">     2</i>
   <i type="logical" name="LWAVE"> T  </i>
   <i type="logical" name="LDOWNSAMPLE"> F  </i>
   <i type="logical" name="LCHARG"> T  </i>
   <i type="logical" name="LPARD"> F  </i>
   <i type="logical" name="LVTOT"> F  </i>
   <i type="logical" name="LVHAR"> F  </i>
   <i type="logical" name="LELF"> F  </i>
   <i type="logical" name="LOPTICS"> F  </i>
   <v name="STM">      0.00000000      0.00000000      0.00000000      0.00000000      0.00000000      0.00000000      0.00000000</v>
  </separator>
  <separator name="performance" >
   <i type="int" name="NPAR">     8</i>
   <i type="int" name="NSIM">     4</i>
   <i type="int" name="NBLK">    -1</i>
   <i type="logical" name="LPLANE"> T  </i>
   <i type="logical" name="LSCALAPACK"> T  </i>
   <i type="logical" name="LSCAAWARE"> F  </i>
   <i type="logical" name="LSCALU"> F  </i>
   <i type="logical" name="LASYNC"> F  </i>
   <i type="logical" name="LORBITALREAL"> F  </i>
  </separator>
  <separator name="miscellaneous" >
   <i type="int" name="IDIOT">     3</i>
   <i type="int" name="ISPECIAL">     0</i>
   <i type="logical" name="LMUSIC"> F  </i>
   <v name="POMASS">     92.91000000     95.94000000    180.94800000     47.88000000    183.85000000</v>
   <v name="DARWINR">      0.00000000      0.00000000      0.00000000      0.00000000      0.00000000</v>
   <v name="DARWINV">      1.00000000      1.00000000      1.00000000      1.00000000      1.00000000</v>
   <i type="logical" name="LCORR"> T  </i>
  </separator>
  <i type="logical" name="GGA_COMPAT"> T  </i>
  <i type="logical" name="LBERRY"> F  </i>
  <i type="int" name="ICORELEVEL">     0</i>
  <i type="logical" name="LDAU"> F  </i>
  <i type="int" name="I_CONSTRAINED_M">     0</i>
  <separator name="electronic exchange-correlation" >
   <i type="string" name="GGA">PS</i>
   <i type="int" name="VOSKOWN">     0</i>
   <i type="logical" name="LHFCALC"> F  </i>
   <i type="string" name="PRECFOCK"></i>
   <i type="logical" name="LSYMGRAD"> F  </i>
   <i type="logical" name="LHFONE"> F  </i>
   <i type="logical" name="LRHFCALC"> F  </i>
   <i type="logical" name="LTHOMAS"> F  </i>
   <i type="logical" name="LMODELHF"> F  </i>
   <i name="ENCUT4O">     -1.00000000</i>
   <i type="int" name="EXXOEP">     0</i>
   <i type="int" name="FOURORBIT">     0</i>
   <i name="AEXX">      0.00000000</i>
   <i name="HFALPHA">      0.00000000</i>
   <i name="MCALPHA">      0.00000000</i>
   <i name="ALDAX">      1.00000000</i>
   <i name="AGGAX">      1.00000000</i>
   <i name="ALDAC">      1.00000000</i>
   <i name="AGGAC">      1.00000000</i>
   <i type="int" name="NKREDX">     1</i>
   <i type="int" name="NKREDY">     1</i>
   <i type="int" name="NKREDZ">     1</i>
   <i type="logical" name="SHIFTRED"> F  </i>
   <i type="logical" name="ODDONLY"> F  </i>
   <i type="logical" name="EVENONLY"> F  </i>
   <i type="int" name="LMAXFOCK">     0</i>
   <i type="int" name="NMAXFOCKAE">     0</i>
   <i type="logical" name="LFOCKAEDFT"> F  </i>
   <i name="HFSCREEN">      0.00000000</i>
   <i name="HFSCREENC">      0.00000000</i>
   <i type="int" name="NBANDSGWLOW">     0</i>
  </separator>
  <separator name="vdW DFT" >
   <i type="logical" name="LUSE_VDW"> F  </i>
   <i name="Zab_VDW">     -0.84910000</i>
   <i name="PARAM1">      0.12340000</i>
   <i name="PARAM2">      1.00000000</i>
   <i name="PARAM3">      0.00000000</i>
  </separator>
  <separator name="model GW" >
   <i type="int" name="MODEL_GW">     0</i>
   <i name="MODEL_EPS0">      9.64722960</i>
   <i name="MODEL_ALPHA">      1.00000000</i>
  </separator>
  <separator name="linear response parameters" >
   <i type="logical" name="LEPSILON"> F  </i>
   <i type="logical" name="LRPA"> F  </i>
   <i type="logical" name="LNABLA"> F  </i>
   <i type="logical" name="LVEL"> F  </i>
   <i type="int" name="KINTER">     0</i>
   <i name="CSHIFT">      0.10000000</i>
   <i name="OMEGAMAX">     -1.00000000</i>
   <i name="DEG_THRESHOLD">      0.00200000</i>
   <i name="RTIME">     -0.10000000</i>
   <i name="WPLASMAI">      0.00000000</i>
   <v name="DFIELD">      0.00000000      0.00000000      0.00000000</v>
   <v name="WPLASMA">      0.00000000      0.00000000      0.00000000      0.00000000      0.00000000      0.00000000      0.00000000      0.00000000      0.00000000</v>
  </separator>
  <separator name="orbital magnetization" >
   <i type="logical" name="NUCIND"> F  </i>
   <v name="MAGPOS">      0.00000000      0.00000000      0.00000000</v>
   <i type="logical" name="LNICSALL"> T  </i>
   <i type="logical" name="ORBITALMAG"> F  </i>
   <i type="logical" name="LMAGBLOCH"> F  </i>
   <i type="logical" name="LCHIMAG"> F  </i>
   <i type="logical" name="LGAUGE"> T  </i>
   <i type="int" name="MAGATOM">     0</i>
   <v name="MAGDIPOL">      0.00000000      0.00000000      0.00000000</v>
   <v name="AVECCONST">      0.00000000      0.00000000      0.00000000</v>
  </separator>
  <separator name="response functions" >
   <i type="logical" name="LADDER"> F  </i>
   <i type="logical" name="LRPAFORCE"> F  </i>
   <i type="logical" name="LFXC"> F  </i>
   <i type="logical" name="LHARTREE"> T  </i>
   <i type="int" name="IBSE">     0</i>
   <v type="int" name="KPOINT">    -1     0     0     0</v>
   <i type="logical" name="LTCTE"> F  </i>
   <i type="logical" name="LTETE"> F  </i>
   <i type="logical" name="LTRIPLET"> F  </i>
   <i type="logical" name="LFXCEPS"> F  </i>
   <i type="logical" name="LFXHEG"> F  </i>
   <i type="int" name="NATURALO">     2</i>
   <i type="logical" name="L2ORDER"> F  </i>
   <i type="logical" name="LMP2LT"> F  </i>
   <i type="logical" name="LUSEW"> F  </i>
   <i name="ENCUTGW">     -2.00000000</i>
   <i name="ENCUTGWSOFT">     -2.00000000</i>
   <i name="ENCUTLF">     -1.00000000</i>
   <i type="int" name="LMAXMP2">    -1</i>
   <i name="SCISSOR">      0.00000000</i>
   <i type="int" name="NOMEGA">     0</i>
   <i type="int" name="NOMEGAR">     0</i>
   <i type="int" name="NBANDSGW">    -1</i>
   <i type="int" name="NBANDSO">    -1</i>
   <i type="int" name="NBANDSV">    -1</i>
   <i type="int" name="NELM">     1</i>
   <i type="int" name="NELMHF">     1</i>
   <i type="int" name="DIM">     3</i>
   <i type="int" name="ANTIRES">     0</i>
   <i name="OMEGAMAX">    -30.00000000</i>
   <i name="OMEGAMIN">    -30.00000000</i>
   <i name="OMEGATL">   -200.00000000</i>
   <i type="int" name="OMEGAGRID">   140</i>
   <i name="CSHIFT">     -0.10000000</i>
   <i type="logical" name="SELFENERGY"> F  </i>
   <i type="logical" name="LSPECTRAL"> F  </i>
   <i type="logical" name="LSPECTRALGW"> F  </i>
   <i type="logical" name="LSINGLES"> F  </i>
   <i type="logical" name="LFERMIGW"> F  </i>
   <i type="logical" name="ODDONLYGW"> F  </i>
   <i type="logical" name="EVENONLYGW"> F  </i>
   <i type="int" name="NKREDLFX">     1</i>
   <i type="int" name="NKREDLFY">     1</i>
   <i type="int" name="NKREDLFZ">     1</i>
   <i type="int" name="MAXMEM">  2800</i>
   <i type="int" name="TELESCOPE">     0</i>
   <i type="int" name="TAUPAR">     1</i>
   <i type="int" name="OMEGAPAR">    -1</i>
   <i name="LAMBDA">      1.00000000</i>
  </separator>
  <separator name="External order field" >
   <i name="OFIELD_KAPPA">      0.00000000</i>
   <v name="OFIELD_K">      0.00000000      0.00000000      0.00000000</v>
   <i name="OFIELD_Q6_NEAR">      0.00000000</i>
   <i name="OFIELD_Q6_FAR">      0.00000000</i>
   <i name="OFIELD_A">      0.00000000</i>
  </separator>
  <separator name="solvation model" >
   <i type="logical" name="LSOL"> F  </i>
  </separator>
 </parameters>
 <atominfo>
  <atoms>      30 </atoms>
  <types>       5 </types>
  <array name="atoms" >
   <dimension dim="1">ion</dimension>
   <field type="string">element</field>
   <field type="int">atomtype</field>
   <set>
    <rc><c>Nb</c><c>   1</c></rc>
    <rc><c>Nb</c><c>   1</c></rc>
    <rc><c>Nb</c><c>   1</c></rc>
    <rc><c>Nb</c><c>   1</c></rc>
    <rc><c>Nb</c><c>   1</c></rc>
    <rc><c>Nb</c><c>   1</c></rc>
    <rc><c>Mo</c><c>   2</c></rc>
    <rc><c>Mo</c><c>   2</c></rc>
    <rc><c>Mo</c><c>   2</c></rc>
    <rc><c>Mo</c><c>   2</c></rc>
    <rc><c>Mo</c><c>   2</c></rc>
    <rc><c>Mo</c><c>   2</c></rc>
    <rc><c>Ta</c><c>   3</c></rc>
    <rc><c>Ta</c><c>   3</c></rc>
    <rc><c>Ta</c><c>   3</c></rc>
    <rc><c>Ta</c><c>   3</c></rc>
    <rc><c>Ta</c><c>   3</c></rc>
    <rc><c>Ta</c><c>   3</c></rc>
    <rc><c>Ti</c><c>   4</c></rc>
    <rc><c>Ti</c><c>   4</c></rc>
    <rc><c>Ti</c><c>   4</c></rc>
    <rc><c>Ti</c><c>   4</c></rc>
    <rc><c>Ti</c><c>   4</c></rc>
    <rc><c>Ti</c><c>   4</c></rc>
    <rc><c>W </c><c>   5</c></rc>
    <rc><c>W </c><c>   5</c></rc>
    <rc><c>W </c><c>   5</c></rc>
    <rc><c>W </c><c>   5</c></rc>
    <rc><c>W </c><c>   5</c></rc>
    <rc><c>W </c><c>   5</c></rc>
   </set>
  </array>
  <array name="atomtypes" >
   <dimension dim="1">type</dimension>
   <field type="int">atomspertype</field>
   <field type="string">element</field>
   <field>mass</field>
   <field>valence</field>
   <field type="string">pseudopotential</field>
   <set>
    <rc><c>   6</c><c>Nb</c><c>     92.91000000</c><c>     13.00000000</c><c>  PAW_PBE Nb_sv 25May2007               </c></rc>
    <rc><c>   6</c><c>Mo</c><c>     95.94000000</c><c>      6.00000000</c><c>  PAW_PBE Mo 08Apr2002                  </c></rc>
    <rc><c>   6</c><c>Ta</c><c>    180.94800000</c><c>      5.00000000</c><c>  PAW_PBE Ta 17Jan2003                  </c></rc>
    <rc><c>   6</c><c>Ti</c><c>     47.88000000</c><c>      4.00000000</c><c>  PAW_PBE Ti 08Apr2002                  </c></rc>
    <rc><c>   6</c><c>W </c><c>    183.85000000</c><c>      6.00000000</c><c>  PAW_PBE W 08Apr2002                   </c></rc>
   </set>
  </array>
 </atominfo>
 <structure name="initialpos" >
  <crystal>
   <varray name="basis" >
    <v>       0.00000000       0.00000000       6.36000000 </v>
    <v>       7.95000000       1.59000000       1.59000000 </v>
    <v>       0.00000000       9.54000000       3.18000000 </v>
   </varray>
   <i name="volume">    482.36148000 </i>
   <varray name="rec_basis" >
    <v>      -0.02096436      -0.05241090       0.15723270 </v>
    <v>       0.12578616       0.00000000       0.00000000 </v>
    <v>      -0.02096436       0.10482180       0.00000000 </v>
   </varray>
  </crystal>
  <varray name="positions" >
   <v>       0.00000000       0.00000000       0.00000000 </v>
   <v>       0.83333333       0.00000000       0.33333333 </v>
   <v>       0.10000000       0.40000000       0.60000000 </v>
   <v>       0.20000000       0.80000000       0.20000000 </v>
   <v>       0.80000000       0.20000000       0.80000000 </v>
   <v>       0.93333333       0.40000000       0.93333333 </v>
   <v>       0.50000000       0.00000000       0.00000000 </v>
   <v>       0.33333333       0.00000000       0.33333333 </v>
   <v>       0.46666667       0.20000000       0.46666667 </v>
   <v>       0.23333333       0.60000000       0.73333333 </v>
   <v>       0.73333333       0.60000000       0.73333333 </v>
   <v>       0.86666667       0.80000000       0.86666667 </v>
   <v>       0.13333333       0.20000000       0.13333333 </v>
   <v>       0.63333333       0.20000000       0.13333333 </v>
   <v>       0.66666667       0.00000000       0.66666667 </v>
   <v>       0.76666667       0.40000000       0.26666667 </v>
   <v>       0.40000000       0.60000000       0.40000000 </v>
   <v>       0.60000000       0.40000000       0.60000000 </v>
   <v>       0.16666667       0.00000000       0.66666667 </v>
   <v>       0.26666667       0.40000000       0.26666667 </v>
   <v>       0.30000000       0.20000000       0.80000000 </v>
   <v>       0.90000000       0.60000000       0.40000000 </v>
   <v>       0.53333333       0.80000000       0.53333333 </v>
   <v>       0.36666667       0.80000000       0.86666667 </v>
   <v>       0.06666667       0.60000000       0.06666667 </v>
   <v>       0.56666667       0.60000000       0.06666667 </v>
   <v>       0.96666667       0.20000000       0.46666667 </v>
   <v>       0.70000000       0.80000000       0.20000000 </v>
   <v>       0.03333333       0.80000000       0.53333333 </v>
   <v>       0.43333333       0.40000000       0.93333333 </v>
  </varray>
 </structure>
 <calculation>
  <scstep>
   <time name="dav">   10.24   10.28</time>
   <time name="total">   10.27   10.31</time>
   <energy>
    <i name="alphaZ">   1394.49509222 </i>
    <i name="ewald"> -12130.41111242 </i>
    <i name="hartreedc">  -2994.63359010 </i>
    <i name="XCdc">   -901.91722124 </i>
    <i name="pawpsdc">  12303.85264859 </i>
    <i name="pawaedc"> -10739.97191893 </i>
    <i name="eentropy">      0.00142708 </i>
    <i name="bandstr">   1491.12332332 </i>
    <i name="atom">  13210.85262565 </i>
    <i name="e_fr_energy">   1633.39127416 </i>
    <i name="e_wo_entrp">   1633.38984708 </i>
    <i name="e_0_energy">   1633.39079847 </i>
   </energy>
  </scstep>
  <scstep>
   <time name="dav">   10.25   10.27</time>
   <time name="total">   10.26   10.28</time>
   <energy>
    <i name="e_fr_energy">    -48.44926383 </i>
    <i name="e_wo_entrp">    -48.44993217 </i>
    <i name="e_0_energy">    -48.44948661 </i>
   </energy>
  </scstep>
  <scstep>
   <time name="dav">   16.64   16.67</time>
   <time name="total">   16.65   16.67</time>
   <energy>
    <i name="e_fr_energy">   -334.27984353 </i>
    <i name="e_wo_entrp">   -334.28704993 </i>
    <i name="e_0_energy">   -334.28224567 </i>
   </energy>
  </scstep>
  <scstep>
   <time name="dav">   15.18   15.20</time>
   <time name="total">   15.18   15.20</time>
   <energy>
    <i name="e_fr_energy">   -365.95033266 </i>
    <i name="e_wo_entrp">   -365.96280849 </i>
    <i name="e_0_energy">   -365.95449127 </i>
   </energy>
  </scstep>
  <scstep>
   <time name="dav">   16.50   16.52</time>
   <time name="total">   16.79   16.82</time>
   <energy>
    <i name="e_fr_energy">   -368.59821288 </i>
    <i name="e_wo_entrp">   -368.60853504 </i>
    <i name="e_0_energy">   -368.60165360 </i>
   </energy>
  </scstep>
  <scstep>
   <time name="dav">   14.10   14.12</time>
   <time name="total">   14.42   14.44</time>
   <energy>
    <i name="e_fr_energy">   -357.56240281 </i>
    <i name="e_wo_entrp">   -357.55418303 </i>
    <i name="e_0_energy">   -357.55966288 </i>
   </energy>
  </scstep>
  <scstep>
   <time name="dav">   14.08   14.10</time>
   <time name="total">   14.39   14.41</time>
   <energy>
    <i name="e_fr_energy">   -372.66985713 </i>
    <i name="e_wo_entrp">   -372.68057886 </i>
    <i name="e_0_energy">   -372.67343104 </i>
   </energy>
  </scstep>
  <scstep>
   <time name="dav">   13.50   13.52</time>
   <time name="total">   13.82   13.84</time>
   <energy>
    <i name="e_fr_energy">   -352.46041888 </i>
    <i name="e_wo_entrp">   -352.46625228 </i>
    <i name="e_0_energy">   -352.46236334 </i>
   </energy>
  </scstep>
  <scstep>
   <time name="dav">   13.95   13.97</time>
   <time name="total">   14.26   14.28</time>
   <energy>
    <i name="e_fr_energy">   -347.40505997 </i>
    <i name="e_wo_entrp">   -347.40688693 </i>
    <i name="e_0_energy">   -347.40566896 </i>
   </energy>
  </scstep>
  <scstep>
   <time name="dav">   14.59   14.61</time>
   <time name="total">   14.91   14.94</time>
   <energy>
    <i name="e_fr_energy">   -346.51673164 </i>
    <i name="e_wo_entrp">   -346.51163286 </i>
    <i name="e_0_energy">   -346.51503205 </i>
   </energy>
  </scstep>
  <scstep>
   <time name="dav">   13.99   14.01</time>
   <time name="total">   14.30   14.32</time>
   <energy>
    <i name="e_fr_energy">   -346.29491995 </i>
    <i name="e_wo_entrp">   -346.28434149 </i>
    <i name="e_0_energy">   -346.29139380 </i>
   </energy>
  </scstep>
  <scstep>
   <time name="dav">   14.38   14.40</time>
   <time name="total">   14.69   14.71</time>
   <energy>
    <i name="e_fr_energy">   -346.28765436 </i>
    <i name="e_wo_entrp">   -346.28058155 </i>
    <i name="e_0_energy">   -346.28529676 </i>
   </energy>
  </scstep>
  <scstep>
   <time name="dav">   14.60   14.62</time>
   <time name="total">   14.90   14.93</time>
   <energy>
    <i name="e_fr_energy">   -346.26185635 </i>
    <i name="e_wo_entrp">   -346.25085954 </i>
    <i name="e_0_energy">   -346.25819074 </i>
   </energy>
  </scstep>
  <scstep>
   <time name="dav">   14.99   15.00</time>
   <time name="total">   15.30   15.32</time>
   <energy>
    <i name="e_fr_energy">   -346.23766204 </i>
    <i name="e_wo_entrp">   -346.22840544 </i>
    <i name="e_0_energy">   -346.23457651 </i>
   </energy>
  </scstep>
  <scstep>
   <time name="dav">   14.46   14.48</time>
   <time name="total">   14.78   14.80</time>
   <energy>
    <i name="e_fr_energy">   -346.23860560 </i>
    <i name="e_wo_entrp">   -346.22823941 </i>
    <i name="e_0_energy">   -346.23515020 </i>
   </energy>
  </scstep>
  <scstep>
   <time name="dav">   14.38   14.40</time>
   <time name="total">   14.70   14.72</time>
   <energy>
    <i name="e_fr_energy">   -346.23688449 </i>
    <i name="e_wo_entrp">   -346.22695298 </i>
    <i name="e_0_energy">   -346.23357399 </i>
   </energy>
  </scstep>
  <scstep>
   <time name="dav">   13.24   13.26</time>
   <time name="total">   13.55   13.57</time>
   <energy>
    <i name="e_fr_energy">   -346.23499623 </i>
    <i name="e_wo_entrp">   -346.22514251 </i>
    <i name="e_0_energy">   -346.23171165 </i>
   </energy>
  </scstep>
  <scstep>
   <time name="dav">   13.31   13.33</time>
   <time name="total">   13.62   13.64</time>
   <energy>
    <i name="e_fr_energy">   -346.23447353 </i>
    <i name="e_wo_entrp">   -346.22475574 </i>
    <i name="e_0_energy">   -346.23123427 </i>
   </energy>
  </scstep>
  <scstep>
   <time name="dav">   12.53   12.55</time>
   <time name="total">   12.84   12.86</time>
   <energy>
    <i name="e_fr_energy">   -346.23441174 </i>
    <i name="e_wo_entrp">   -346.22466616 </i>
    <i name="e_0_energy">   -346.23116321 </i>
   </energy>
  </scstep>
  <scstep>
   <time name="dav">    9.96    9.98</time>
   <time name="total">    9.98   10.00</time>
   <energy>
    <i name="alphaZ">   1394.49509222 </i>
    <i name="ewald"> -12130.41111242 </i>
    <i name="hartreedc">  -2838.84877358 </i>
    <i name="XCdc">   -895.83486306 </i>
    <i name="pawpsdc">  22285.88727635 </i>
    <i name="pawaedc"> -20726.28425655 </i>
    <i name="eentropy">     -0.00967067 </i>
    <i name="bandstr">   -646.08072135 </i>
    <i name="atom">  13210.85262565 </i>
    <i name="e_fr_energy">   -346.23440341 </i>
    <i name="e_wo_entrp">   -346.22473274 </i>
    <i name="e_0_energy">   -346.23117986 </i>
   </energy>
  </scstep>
  <structure>
   <crystal>
    <varray name="basis" >
     <v>       0.00000000       0.00000000       6.36000000 </v>
     <v>       7.95000000       1.59000000       1.59000000 </v>
     <v>       0.00000000       9.54000000       3.18000000 </v>
    </varray>
    <i name="volume">    482.36148000 </i>
    <varray name="rec_basis" >
     <v>      -0.02096436      -0.05241090       0.15723270 </v>
     <v>       0.12578616       0.00000000       0.00000000 </v>
     <v>      -0.02096436       0.10482180       0.00000000 </v>
    </varray>
   </crystal>
   <varray name="positions" >
    <v>       0.00000000       0.00000000       0.00000000 </v>
    <v>       0.83333333       0.00000000       0.33333333 </v>
    <v>       0.10000000       0.40000000       0.60000000 </v>
    <v>       0.20000000       0.80000000       0.20000000 </v>
    <v>       0.80000000       0.20000000       0.80000000 </v>
    <v>       0.93333333       0.40000000       0.93333333 </v>
    <v>       0.50000000       0.00000000       0.00000000 </v>
    <v>       0.33333333       0.00000000       0.33333333 </v>
    <v>       0.46666667       0.20000000       0.46666667 </v>
    <v>       0.23333333       0.60000000       0.73333333 </v>
    <v>       0.73333333       0.60000000       0.73333333 </v>
    <v>       0.86666667       0.80000000       0.86666667 </v>
    <v>       0.13333333       0.20000000       0.13333333 </v>
    <v>       0.63333333       0.20000000       0.13333333 </v>
    <v>       0.66666667       0.00000000       0.66666667 </v>
    <v>       0.76666667       0.40000000       0.26666667 </v>
    <v>       0.40000000       0.60000000       0.40000000 </v>
    <v>       0.60000000       0.40000000       0.60000000 </v>
    <v>       0.16666667       0.00000000       0.66666667 </v>
    <v>       0.26666667       0.40000000       0.26666667 </v>
    <v>       0.30000000       0.20000000       0.80000000 </v>
    <v>       0.90000000       0.60000000       0.40000000 </v>
    <v>       0.53333333       0.80000000       0.53333333 </v>
    <v>       0.36666667       0.80000000       0.86666667 </v>
    <v>       0.06666667       0.60000000       0.06666667 </v>
    <v>       0.56666667       0.60000000       0.06666667 </v>
    <v>       0.96666667       0.20000000       0.46666667 </v>
    <v>       0.70000000       0.80000000       0.20000000 </v>
    <v>       0.03333333       0.80000000       0.53333333 </v>
    <v>       0.43333333       0.40000000       0.93333333 </v>
   </varray>
  </structure>
  <varray name="forces" >
   <v>      -0.68936409      -0.48449859      -0.27685941 </v>
   <v>      -0.38098633       0.68042455      -0.15354936 </v>
   <v>      -0.14960352      -0.19362170      -0.07267336 </v>
   <v>      -0.20600683      -0.72026325       0.26596890 </v>
   <v>      -0.13462130       0.38668371      -0.40092569 </v>
   <v>       1.04198975      -0.21677265      -0.01499694 </v>
   <v>      -0.30061260      -0.05871006       0.35294846 </v>
   <v>       0.16328650       0.65826290       0.00210194 </v>
   <v>      -0.32556317       0.04905405      -0.22358380 </v>
   <v>       0.18628275       0.14407752      -0.06200620 </v>
   <v>       0.45227873       0.02523233       0.07780016 </v>
   <v>      -0.58720705       0.23252135      -0.15770074 </v>
   <v>      -0.21954319      -0.41648648       0.89929439 </v>
   <v>      -0.43119488      -0.23877641      -0.89677984 </v>
   <v>       0.18393699      -0.51486003       0.42396847 </v>
   <v>       0.15850803       0.22718536       0.00503438 </v>
   <v>       0.75821419       0.00943174      -0.06395640 </v>
   <v>       0.11820105       0.20087896      -0.01570199 </v>
   <v>      -0.06648469      -0.32628481      -0.41697686 </v>
   <v>      -0.16142050      -0.06840036       0.03836009 </v>
   <v>      -0.17351954       0.62210698       0.38633629 </v>
   <v>       0.39857320       0.00361064       0.16398063 </v>
   <v>      -0.48458867       0.43582363      -0.18584474 </v>
   <v>      -0.55189804       0.02062418       0.17097317 </v>
   <v>       0.11977749      -0.06948957      -0.05650839 </v>
   <v>       0.19809912      -0.24083856       0.10390910 </v>
   <v>      -0.06270378      -0.23628033       0.22038969 </v>
   <v>       0.04073556      -0.30515358      -0.42192888 </v>
   <v>      -0.05946610       0.24403696       0.29202286 </v>
   <v>       1.16490093       0.15048153       0.01690406 </v>
  </varray>
  <varray name="stress" >
   <v>      14.69827828       3.96937706      -1.44665330 </v>
   <v>       3.96937696      14.39211271      -1.14691640 </v>
   <v>      -1.44665333      -1.14691643      14.46968508 </v>
  </varray>
  <energy>
   <i name="e_fr_energy">   -346.23440341 </i>
   <i name="e_wo_entrp">   -346.23117986 </i>
   <i name="e_0_energy">     -0.00967067 </i>
  </energy>
  <time name="totalsc">  291.64  297.07</time>
  <eigenvalues>
   <array>
    <dimension dim="1">band</dimension>
    <dimension dim="2">kpoint</dimension>
    <dimension dim="3">spin</dimension>
    <field>eigene</field>
    <field>occ</field>
    <set>
     <set comment="spin 1">
      <set comment="kpoint 1">
       <r>  -46.9761    1.0000 </r>
       <r>  -46.9642    1.0000 </r>
       <r>  -46.9261    1.0000 </r>
       <r>  -46.8675    1.0000 </r>
       <r>  -46.8292    1.0000 </r>
       <r>  -46.7593    1.0000 </r>
       <r>  -23.5606    1.0000 </r>
       <r>  -23.4880    1.0000 </r>
       <r>  -23.4183    1.0000 </r>
       <r>  -23.3044    1.0000 </r>
       <r>  -23.1875    1.0000 </r>
       <r>  -23.1663    1.0000 </r>
       <r>  -23.1519    1.0000 </r>
       <r>  -23.1175    1.0000 </r>
       <r>  -23.1048    1.0000 </r>
       <r>  -23.0703    1.0000 </r>
       <r>  -23.0601    1.0000 </r>
       <r>  -23.0416    1.0000 </r>
       <r>  -22.9659    1.0000 </r>
       <r>  -22.9368    1.0000 </r>
       <r>  -22.8301    1.0000 </r>
       <r>  -22.7919    1.0000 </r>
       <r>  -22.7249    1.0000 </r>
       <r>  -22.5747    1.0000 </r>
       <r>   -0.3847    1.0000 </r>
       <r>    1.5468    1.0000 </r>
       <r>    2.0481    1.0000 </r>
       <r>    2.1889    1.0000 </r>
       <r>    2.3812    1.0000 </r>
       <r>    2.4623    1.0000 </r>
       <r>    2.5750    1.0000 </r>
       <r>    2.6792    1.0000 </r>
       <r>    2.7553    1.0000 </r>
       <r>    2.9125    1.0000 </r>
       <r>    2.9743    1.0000 </r>
       <r>    3.0838    1.0000 </r>
       <r>    3.1077    1.0000 </r>
       <r>    3.1490    1.0000 </r>
       <r>    3.2394    1.0000 </r>
       <r>    3.3421    1.0000 </r>
       <r>    3.3784    1.0000 </r>
       <r>    3.4394    1.0000 </r>
       <r>    3.4732    1.0000 </r>
       <r>    3.5157    1.0000 </r>
       <r>    3.5356    1.0000 </r>
       <r>    3.5875    1.0000 </r>
       <r>    3.6773    1.0000 </r>
       <r>    3.7712    1.0000 </r>
       <r>    3.8049    1.0000 </r>
       <r>    3.8911    1.0000 </r>
       <r>    3.9053    1.0000 </r>
       <r>    3.9642    1.0000 </r>
       <r>    4.0399    1.0000 </r>
       <r>    4.2496    1.0000 </r>
       <r>    4.4294    1.0000 </r>
       <r>    4.5201    1.0000 </r>
       <r>    4.6712    1.0000 </r>
       <r>    4.6939    1.0000 </r>
       <r>    4.8378    1.0000 </r>
       <r>    4.9032    1.0000 </r>
       <r>    4.9405    1.0000 </r>
       <r>    4.9719    1.0000 </r>
       <r>    5.0259    1.0000 </r>
       <r>    5.0720    1.0000 </r>
       <r>    5.1272    1.0000 </r>
       <r>    5.1518    1.0000 </r>
       <r>    5.1801    1.0000 </r>
       <r>    5.2192    1.0000 </r>
       <r>    5.2699    1.0000 </r>
       <r>    5.3069    1.0000 </r>
       <r>    5.3599    1.0000 </r>
       <r>    5.3817    1.0000 </r>
       <r>    5.4725    1.0000 </r>
       <r>    5.5407    1.0000 </r>
       <r>    5.6409    1.0000 </r>
       <r>    5.6748    1.0000 </r>
       <r>    5.7944    1.0000 </r>
       <r>    5.8840    1.0000 </r>
       <r>    5.9948    1.0000 </r>
       <r>    6.0229    1.0000 </r>
       <r>    6.0630    1.0000 </r>
       <r>    6.3033    1.0000 </r>
       <r>    6.4200    1.0002 </r>
       <r>    6.4580    1.0004 </r>
       <r>    6.5573    1.0039 </r>
       <r>    6.6104    1.0096 </r>
       <r>    6.6422    1.0151 </r>
       <r>    6.7093    1.0299 </r>
       <r>    6.7271    1.0332 </r>
       <r>    6.7731    1.0338 </r>
       <r>    6.8414    0.9866 </r>
       <r>    6.8661    0.9464 </r>
       <r>    6.9123    0.8305 </r>
       <r>    6.9288    0.7768 </r>
       <r>    6.9744    0.6023 </r>
       <r>    7.0019    0.4867 </r>
       <r>    7.0211    0.4062 </r>
       <r>    7.0531    0.2790 </r>
       <r>    7.1247    0.0671 </r>
       <r>    7.2546   -0.0350 </r>
       <r>    7.2966   -0.0281 </r>
       <r>    7.3370   -0.0189 </r>
       <r>    7.3563   -0.0149 </r>
       <r>    7.3714   -0.0121 </r>
       <r>    7.4472   -0.0034 </r>
       <r>    7.4980   -0.0012 </r>
       <r>    7.5209   -0.0007 </r>
       <r>    7.5834   -0.0001 </r>
       <r>    7.7186   -0.0000 </r>
       <r>    7.8026   -0.0000 </r>
       <r>    7.9051   -0.0000 </r>
       <r>    7.9442   -0.0000 </r>
       <r>    7.9912   -0.0000 </r>
       <r>    8.0481   -0.0000 </r>
       <r>    8.0677   -0.0000 </r>
       <r>    8.2095   -0.0000 </r>
       <r>    8.3647   -0.0000 </r>
       <r>    8.4883   -0.0000 </r>
       <r>    8.5414   -0.0000 </r>
       <r>    8.6771   -0.0000 </r>
       <r>    8.6886   -0.0000 </r>
       <r>    8.6916   -0.0000 </r>
       <r>    8.7143   -0.0000 </r>
       <r>    8.7657   -0.0000 </r>
       <r>    8.8018   -0.0000 </r>
       <r>    8.8929   -0.0000 </r>
       <r>    8.9157   -0.0000 </r>
       <r>    8.9862   -0.0000 </r>
      </set>
      <set comment="kpoint 2">
       <r>  -46.9758    1.0000 </r>
       <r>  -46.9644    1.0000 </r>
       <r>  -46.9261    1.0000 </r>
       <r>  -46.8675    1.0000 </r>
       <r>  -46.8293    1.0000 </r>
       <r>  -46.7593    1.0000 </r>
       <r>  -23.5619    1.0000 </r>
       <r>  -23.4881    1.0000 </r>
       <r>  -23.4197    1.0000 </r>
       <r>  -23.3045    1.0000 </r>
       <r>  -23.1878    1.0000 </r>
       <r>  -23.1670    1.0000 </r>
       <r>  -23.1529    1.0000 </r>
       <r>  -23.1184    1.0000 </r>
       <r>  -23.1048    1.0000 </r>
       <r>  -23.0701    1.0000 </r>
       <r>  -23.0599    1.0000 </r>
       <r>  -23.0415    1.0000 </r>
       <r>  -22.9661    1.0000 </r>
       <r>  -22.9367    1.0000 </r>
       <r>  -22.8290    1.0000 </r>
       <r>  -22.7927    1.0000 </r>
       <r>  -22.7249    1.0000 </r>
       <r>  -22.5746    1.0000 </r>
       <r>   -0.1419    1.0000 </r>
       <r>    1.5320    1.0000 </r>
       <r>    2.1446    1.0000 </r>
       <r>    2.2783    1.0000 </r>
       <r>    2.4246    1.0000 </r>
       <r>    2.5289    1.0000 </r>
       <r>    2.6427    1.0000 </r>
       <r>    2.8140    1.0000 </r>
       <r>    2.8600    1.0000 </r>
       <r>    2.9200    1.0000 </r>
       <r>    3.0743    1.0000 </r>
       <r>    3.1087    1.0000 </r>
       <r>    3.1559    1.0000 </r>
       <r>    3.2463    1.0000 </r>
       <r>    3.2895    1.0000 </r>
       <r>    3.3700    1.0000 </r>
       <r>    3.4144    1.0000 </r>
       <r>    3.4797    1.0000 </r>
       <r>    3.5475    1.0000 </r>
       <r>    3.5763    1.0000 </r>
       <r>    3.6523    1.0000 </r>
       <r>    3.6777    1.0000 </r>
       <r>    3.7241    1.0000 </r>
       <r>    3.8692    1.0000 </r>
       <r>    3.9669    1.0000 </r>
       <r>    4.0156    1.0000 </r>
       <r>    4.0891    1.0000 </r>
       <r>    4.1848    1.0000 </r>
       <r>    4.2181    1.0000 </r>
       <r>    4.2593    1.0000 </r>
       <r>    4.4811    1.0000 </r>
       <r>    4.6545    1.0000 </r>
       <r>    4.7027    1.0000 </r>
       <r>    4.7573    1.0000 </r>
       <r>    4.7950    1.0000 </r>
       <r>    4.8357    1.0000 </r>
       <r>    4.8952    1.0000 </r>
       <r>    4.9356    1.0000 </r>
       <r>    4.9975    1.0000 </r>
       <r>    5.0746    1.0000 </r>
       <r>    5.1031    1.0000 </r>
       <r>    5.1606    1.0000 </r>
       <r>    5.1969    1.0000 </r>
       <r>    5.2380    1.0000 </r>
       <r>    5.2888    1.0000 </r>
       <r>    5.3264    1.0000 </r>
       <r>    5.3511    1.0000 </r>
       <r>    5.4126    1.0000 </r>
       <r>    5.4469    1.0000 </r>
       <r>    5.4970    1.0000 </r>
       <r>    5.5913    1.0000 </r>
       <r>    5.6674    1.0000 </r>
       <r>    5.7227    1.0000 </r>
       <r>    5.8183    1.0000 </r>
       <r>    5.8817    1.0000 </r>
       <r>    5.9477    1.0000 </r>
       <r>    6.0711    1.0000 </r>
       <r>    6.1075    1.0000 </r>
       <r>    6.1875    1.0000 </r>
       <r>    6.2515    1.0000 </r>
       <r>    6.2910    1.0000 </r>
       <r>    6.3355    1.0000 </r>
       <r>    6.3668    1.0000 </r>
       <r>    6.4142    1.0001 </r>
       <r>    6.4399    1.0003 </r>
       <r>    6.5035    1.0013 </r>
       <r>    6.5367    1.0026 </r>
       <r>    6.5947    1.0075 </r>
       <r>    6.6474    1.0162 </r>
       <r>    6.6804    1.0234 </r>
       <r>    6.7110    1.0303 </r>
       <r>    6.7891    1.0294 </r>
       <r>    6.8244    1.0062 </r>
       <r>    6.8538    0.9683 </r>
       <r>    6.9338    0.7593 </r>
       <r>    6.9703    0.6189 </r>
       <r>    7.0244    0.3925 </r>
       <r>    7.1307    0.0550 </r>
       <r>    7.1943   -0.0227 </r>
       <r>    7.2328   -0.0350 </r>
       <r>    7.2964   -0.0282 </r>
       <r>    7.3146   -0.0240 </r>
       <r>    7.4055   -0.0072 </r>
       <r>    7.4775   -0.0018 </r>
       <r>    7.5026   -0.0011 </r>
       <r>    7.5873   -0.0001 </r>
       <r>    7.7249   -0.0000 </r>
       <r>    7.7653   -0.0000 </r>
       <r>    8.0465   -0.0000 </r>
       <r>    8.1100   -0.0000 </r>
       <r>    8.1699   -0.0000 </r>
       <r>    8.2513   -0.0000 </r>
       <r>    8.3709   -0.0000 </r>
       <r>    8.6025   -0.0000 </r>
       <r>    8.8310   -0.0000 </r>
       <r>    8.9009   -0.0000 </r>
       <r>    8.9227   -0.0000 </r>
       <r>    8.9528   -0.0000 </r>
       <r>    9.0424   -0.0000 </r>
       <r>    9.1151   -0.0000 </r>
       <r>    9.1479   -0.0000 </r>
       <r>    9.2400   -0.0000 </r>
       <r>    9.2796   -0.0000 </r>
       <r>    9.4144   -0.0000 </r>
      </set>
      <set comment="kpoint 3">
       <r>  -46.9752    1.0000 </r>
       <r>  -46.9648    1.0000 </r>
       <r>  -46.9260    1.0000 </r>
       <r>  -46.8675    1.0000 </r>
       <r>  -46.8294    1.0000 </r>
       <r>  -46.7593    1.0000 </r>
       <r>  -23.5640    1.0000 </r>
       <r>  -23.4882    1.0000 </r>
       <r>  -23.4216    1.0000 </r>
       <r>  -23.3046    1.0000 </r>
       <r>  -23.1882    1.0000 </r>
       <r>  -23.1685    1.0000 </r>
       <r>  -23.1546    1.0000 </r>
       <r>  -23.1194    1.0000 </r>
       <r>  -23.1047    1.0000 </r>
       <r>  -23.0697    1.0000 </r>
       <r>  -23.0596    1.0000 </r>
       <r>  -23.0414    1.0000 </r>
       <r>  -22.9664    1.0000 </r>
       <r>  -22.9363    1.0000 </r>
       <r>  -22.8271    1.0000 </r>
       <r>  -22.7937    1.0000 </r>
       <r>  -22.7247    1.0000 </r>
       <r>  -22.5744    1.0000 </r>
       <r>    0.5241    1.0000 </r>
       <r>    1.5225    1.0000 </r>
       <r>    1.6428    1.0000 </r>
       <r>    2.1767    1.0000 </r>
       <r>    2.4446    1.0000 </r>
       <r>    2.7247    1.0000 </r>
       <r>    2.7887    1.0000 </r>
       <r>    2.9557    1.0000 </r>
       <r>    2.9747    1.0000 </r>
       <r>    3.0930    1.0000 </r>
       <r>    3.2115    1.0000 </r>
       <r>    3.3789    1.0000 </r>
       <r>    3.4846    1.0000 </r>
       <r>    3.5195    1.0000 </r>
       <r>    3.5809    1.0000 </r>
       <r>    3.6178    1.0000 </r>
       <r>    3.6991    1.0000 </r>
       <r>    3.7388    1.0000 </r>
       <r>    3.8151    1.0000 </r>
       <r>    3.8632    1.0000 </r>
       <r>    3.8985    1.0000 </r>
       <r>    3.9739    1.0000 </r>
       <r>    4.0261    1.0000 </r>
       <r>    4.0535    1.0000 </r>
       <r>    4.0931    1.0000 </r>
       <r>    4.1361    1.0000 </r>
       <r>    4.2389    1.0000 </r>
       <r>    4.2685    1.0000 </r>
       <r>    4.3764    1.0000 </r>
       <r>    4.4187    1.0000 </r>
       <r>    4.4625    1.0000 </r>
       <r>    4.5478    1.0000 </r>
       <r>    4.6870    1.0000 </r>
       <r>    4.7029    1.0000 </r>
       <r>    4.7763    1.0000 </r>
       <r>    4.8382    1.0000 </r>
       <r>    4.9305    1.0000 </r>
       <r>    4.9425    1.0000 </r>
       <r>    4.9680    1.0000 </r>
       <r>    5.0283    1.0000 </r>
       <r>    5.0588    1.0000 </r>
       <r>    5.1161    1.0000 </r>
       <r>    5.1606    1.0000 </r>
       <r>    5.1832    1.0000 </r>
       <r>    5.2130    1.0000 </r>
       <r>    5.2502    1.0000 </r>
       <r>    5.2750    1.0000 </r>
       <r>    5.3258    1.0000 </r>
       <r>    5.3997    1.0000 </r>
       <r>    5.4181    1.0000 </r>
       <r>    5.4639    1.0000 </r>
       <r>    5.5458    1.0000 </r>
       <r>    5.5782    1.0000 </r>
       <r>    5.6083    1.0000 </r>
       <r>    5.6325    1.0000 </r>
       <r>    5.6957    1.0000 </r>
       <r>    5.7295    1.0000 </r>
       <r>    5.8230    1.0000 </r>
       <r>    5.9243    1.0000 </r>
       <r>    5.9813    1.0000 </r>
       <r>    6.0397    1.0000 </r>
       <r>    6.1195    1.0000 </r>
       <r>    6.1537    1.0000 </r>
       <r>    6.2050    1.0000 </r>
       <r>    6.2408    1.0000 </r>
       <r>    6.2645    1.0000 </r>
       <r>    6.3134    1.0000 </r>
       <r>    6.3401    1.0000 </r>
       <r>    6.3688    1.0000 </r>
       <r>    6.4270    1.0002 </r>
       <r>    6.4428    1.0003 </r>
       <r>    6.4802    1.0008 </r>
       <r>    6.5484    1.0033 </r>
       <r>    6.5829    1.0061 </r>
       <r>    6.6153    1.0103 </r>
       <r>    6.6551    1.0178 </r>
       <r>    6.7765    1.0332 </r>
       <r>    6.8042    1.0221 </r>
       <r>    6.8433    0.9840 </r>
       <r>    6.9056    0.8506 </r>
       <r>    6.9632    0.6479 </r>
       <r>    6.9830    0.5664 </r>
       <r>    7.0216    0.4040 </r>
       <r>    7.0477    0.2996 </r>
       <r>    7.1440    0.0312 </r>
       <r>    7.2872   -0.0301 </r>
       <r>    7.3224   -0.0222 </r>
       <r>    7.4365   -0.0041 </r>
       <r>    7.8103   -0.0000 </r>
       <r>    7.9862   -0.0000 </r>
       <r>    8.3348   -0.0000 </r>
       <r>    8.5165   -0.0000 </r>
       <r>    8.7613   -0.0000 </r>
       <r>    8.8568   -0.0000 </r>
       <r>    8.8751   -0.0000 </r>
       <r>    8.9499   -0.0000 </r>
       <r>    9.0702   -0.0000 </r>
       <r>    9.1366   -0.0000 </r>
       <r>    9.2043   -0.0000 </r>
       <r>    9.2453   -0.0000 </r>
       <r>    9.3376   -0.0000 </r>
       <r>    9.4145   -0.0000 </r>
       <r>    9.4905   -0.0000 </r>
       <r>    9.5324   -0.0000 </r>
      </set>
      <set comment="kpoint 4">
       <r>  -46.9758    1.0000 </r>
       <r>  -46.9646    1.0000 </r>
       <r>  -46.9261    1.0000 </r>
       <r>  -46.8675    1.0000 </r>
       <r>  -46.8292    1.0000 </r>
       <r>  -46.7593    1.0000 </r>
       <r>  -23.5607    1.0000 </r>
       <r>  -23.4874    1.0000 </r>
       <r>  -23.4176    1.0000 </r>
       <r>  -23.3061    1.0000 </r>
       <r>  -23.1874    1.0000 </r>
       <r>  -23.1662    1.0000 </r>
       <r>  -23.1521    1.0000 </r>
       <r>  -23.1177    1.0000 </r>
       <r>  -23.1047    1.0000 </r>
       <r>  -23.0702    1.0000 </r>
       <r>  -23.0602    1.0000 </r>
       <r>  -23.0414    1.0000 </r>
       <r>  -22.9661    1.0000 </r>
       <r>  -22.9367    1.0000 </r>
       <r>  -22.8292    1.0000 </r>
       <r>  -22.7925    1.0000 </r>
       <r>  -22.7250    1.0000 </r>
       <r>  -22.5751    1.0000 </r>
       <r>   -0.2491    1.0000 </r>
       <r>    1.4676    1.0000 </r>
       <r>    1.7632    1.0000 </r>
       <r>    2.0948    1.0000 </r>
       <r>    2.2891    1.0000 </r>
       <r>    2.5032    1.0000 </r>
       <r>    2.5622    1.0000 </r>
       <r>    2.7047    1.0000 </r>
       <r>    2.8059    1.0000 </r>
       <r>    2.8795    1.0000 </r>
       <r>    2.9125    1.0000 </r>
       <r>    2.9737    1.0000 </r>
       <r>    3.0673    1.0000 </r>
       <r>    3.1754    1.0000 </r>
       <r>    3.2540    1.0000 </r>
       <r>    3.3697    1.0000 </r>
       <r>    3.3764    1.0000 </r>
       <r>    3.4632    1.0000 </r>
       <r>    3.5069    1.0000 </r>
       <r>    3.5814    1.0000 </r>
       <r>    3.6850    1.0000 </r>
       <r>    3.7284    1.0000 </r>
       <r>    3.7927    1.0000 </r>
       <r>    3.8529    1.0000 </r>
       <r>    3.8685    1.0000 </r>
       <r>    3.9020    1.0000 </r>
       <r>    4.0020    1.0000 </r>
       <r>    4.0208    1.0000 </r>
       <r>    4.1127    1.0000 </r>
       <r>    4.1586    1.0000 </r>
       <r>    4.3263    1.0000 </r>
       <r>    4.4975    1.0000 </r>
       <r>    4.6834    1.0000 </r>
       <r>    4.7280    1.0000 </r>
       <r>    4.8243    1.0000 </r>
       <r>    4.8538    1.0000 </r>
       <r>    4.8811    1.0000 </r>
       <r>    4.9313    1.0000 </r>
       <r>    4.9954    1.0000 </r>
       <r>    5.0674    1.0000 </r>
       <r>    5.0888    1.0000 </r>
       <r>    5.1810    1.0000 </r>
       <r>    5.2088    1.0000 </r>
       <r>    5.2389    1.0000 </r>
       <r>    5.2876    1.0000 </r>
       <r>    5.3114    1.0000 </r>
       <r>    5.3865    1.0000 </r>
       <r>    5.4329    1.0000 </r>
       <r>    5.4999    1.0000 </r>
       <r>    5.5420    1.0000 </r>
       <r>    5.5728    1.0000 </r>
       <r>    5.6964    1.0000 </r>
       <r>    5.7766    1.0000 </r>
       <r>    5.8520    1.0000 </r>
       <r>    5.9309    1.0000 </r>
       <r>    5.9549    1.0000 </r>
       <r>    6.1325    1.0000 </r>
       <r>    6.2853    1.0000 </r>
       <r>    6.3639    1.0000 </r>
       <r>    6.4043    1.0001 </r>
       <r>    6.4133    1.0001 </r>
       <r>    6.4519    1.0004 </r>
       <r>    6.5134    1.0016 </r>
       <r>    6.5554    1.0037 </r>
       <r>    6.6184    1.0108 </r>
       <r>    6.6909    1.0259 </r>
       <r>    6.7308    1.0337 </r>
       <r>    6.8073    1.0201 </r>
       <r>    6.9843    0.5608 </r>
       <r>    7.0200    0.4106 </r>
       <r>    7.0467    0.3032 </r>
       <r>    7.0677    0.2264 </r>
       <r>    7.1474    0.0259 </r>
       <r>    7.1651    0.0022 </r>
       <r>    7.2086   -0.0295 </r>
       <r>    7.2694   -0.0333 </r>
       <r>    7.3244   -0.0218 </r>
       <r>    7.3563   -0.0149 </r>
       <r>    7.3986   -0.0080 </r>
       <r>    7.4239   -0.0052 </r>
       <r>    7.4754   -0.0019 </r>
       <r>    7.5150   -0.0008 </r>
       <r>    7.5826   -0.0001 </r>
       <r>    7.6221   -0.0000 </r>
       <r>    7.6612   -0.0000 </r>
       <r>    7.7484   -0.0000 </r>
       <r>    7.7691   -0.0000 </r>
       <r>    7.8691   -0.0000 </r>
       <r>    7.9323   -0.0000 </r>
       <r>    8.2251   -0.0000 </r>
       <r>    8.3536   -0.0000 </r>
       <r>    8.4366   -0.0000 </r>
       <r>    8.4687   -0.0000 </r>
       <r>    8.5298   -0.0000 </r>
       <r>    8.5954   -0.0000 </r>
       <r>    8.6367   -0.0000 </r>
       <r>    8.7079   -0.0000 </r>
       <r>    8.7351   -0.0000 </r>
       <r>    8.8158   -0.0000 </r>
       <r>    8.8292   -0.0000 </r>
       <r>    8.8917   -0.0000 </r>
       <r>    9.0222   -0.0000 </r>
       <r>    9.0919   -0.0000 </r>
       <r>    9.2388   -0.0000 </r>
      </set>
      <set comment="kpoint 5">
       <r>  -46.9757    1.0000 </r>
       <r>  -46.9645    1.0000 </r>
       <r>  -46.9261    1.0000 </r>
       <r>  -46.8675    1.0000 </r>
       <r>  -46.8293    1.0000 </r>
       <r>  -46.7593    1.0000 </r>
       <r>  -23.5611    1.0000 </r>
       <r>  -23.4879    1.0000 </r>
       <r>  -23.4196    1.0000 </r>
       <r>  -23.3061    1.0000 </r>
       <r>  -23.1877    1.0000 </r>
       <r>  -23.1668    1.0000 </r>
       <r>  -23.1531    1.0000 </r>
       <r>  -23.1182    1.0000 </r>
       <r>  -23.1049    1.0000 </r>
       <r>  -23.0701    1.0000 </r>
       <r>  -23.0599    1.0000 </r>
       <r>  -23.0413    1.0000 </r>
       <r>  -22.9662    1.0000 </r>
       <r>  -22.9367    1.0000 </r>
       <r>  -22.8283    1.0000 </r>
       <r>  -22.7925    1.0000 </r>
       <r>  -22.7249    1.0000 </r>
       <r>  -22.5749    1.0000 </r>
       <r>   -0.0619    1.0000 </r>
       <r>    1.4631    1.0000 </r>
       <r>    1.9041    1.0000 </r>
       <r>    2.3419    1.0000 </r>
       <r>    2.5495    1.0000 </r>
       <r>    2.6170    1.0000 </r>
       <r>    2.6769    1.0000 </r>
       <r>    2.7742    1.0000 </r>
       <r>    2.9009    1.0000 </r>
       <r>    2.9218    1.0000 </r>
       <r>    3.0256    1.0000 </r>
       <r>    3.0971    1.0000 </r>
       <r>    3.1289    1.0000 </r>
       <r>    3.2022    1.0000 </r>
       <r>    3.2892    1.0000 </r>
       <r>    3.3165    1.0000 </r>
       <r>    3.4135    1.0000 </r>
       <r>    3.4613    1.0000 </r>
       <r>    3.5332    1.0000 </r>
       <r>    3.6096    1.0000 </r>
       <r>    3.6898    1.0000 </r>
       <r>    3.7408    1.0000 </r>
       <r>    3.8072    1.0000 </r>
       <r>    3.8232    1.0000 </r>
       <r>    3.9267    1.0000 </r>
       <r>    3.9877    1.0000 </r>
       <r>    4.0830    1.0000 </r>
       <r>    4.1534    1.0000 </r>
       <r>    4.2220    1.0000 </r>
       <r>    4.2890    1.0000 </r>
       <r>    4.5152    1.0000 </r>
       <r>    4.5351    1.0000 </r>
       <r>    4.6683    1.0000 </r>
       <r>    4.7507    1.0000 </r>
       <r>    4.7966    1.0000 </r>
       <r>    4.8877    1.0000 </r>
       <r>    4.9251    1.0000 </r>
       <r>    4.9630    1.0000 </r>
       <r>    4.9823    1.0000 </r>
       <r>    5.0397    1.0000 </r>
       <r>    5.0790    1.0000 </r>
       <r>    5.1432    1.0000 </r>
       <r>    5.1941    1.0000 </r>
       <r>    5.2119    1.0000 </r>
       <r>    5.2392    1.0000 </r>
       <r>    5.3179    1.0000 </r>
       <r>    5.4061    1.0000 </r>
       <r>    5.4252    1.0000 </r>
       <r>    5.4542    1.0000 </r>
       <r>    5.5575    1.0000 </r>
       <r>    5.5984    1.0000 </r>
       <r>    5.6757    1.0000 </r>
       <r>    5.7376    1.0000 </r>
       <r>    5.8524    1.0000 </r>
       <r>    5.8870    1.0000 </r>
       <r>    5.9306    1.0000 </r>
       <r>    5.9848    1.0000 </r>
       <r>    6.0334    1.0000 </r>
       <r>    6.1106    1.0000 </r>
       <r>    6.1878    1.0000 </r>
       <r>    6.2724    1.0000 </r>
       <r>    6.3099    1.0000 </r>
       <r>    6.3538    1.0000 </r>
       <r>    6.4178    1.0002 </r>
       <r>    6.4998    1.0012 </r>
       <r>    6.5309    1.0023 </r>
       <r>    6.5906    1.0070 </r>
       <r>    6.6271    1.0123 </r>
       <r>    6.6509    1.0169 </r>
       <r>    6.7103    1.0301 </r>
       <r>    6.7642    1.0350 </r>
       <r>    6.8228    1.0077 </r>
       <r>    6.8567    0.9633 </r>
       <r>    6.8970    0.8748 </r>
       <r>    6.9211    0.8026 </r>
       <r>    6.9705    0.6182 </r>
       <r>    7.0089    0.4571 </r>
       <r>    7.0753    0.2009 </r>
       <r>    7.1496    0.0225 </r>
       <r>    7.1842   -0.0158 </r>
       <r>    7.2583   -0.0347 </r>
       <r>    7.3111   -0.0248 </r>
       <r>    7.4116   -0.0065 </r>
       <r>    7.5255   -0.0006 </r>
       <r>    7.6204   -0.0001 </r>
       <r>    7.6868   -0.0000 </r>
       <r>    7.7527   -0.0000 </r>
       <r>    7.8862   -0.0000 </r>
       <r>    8.0517   -0.0000 </r>
       <r>    8.1139   -0.0000 </r>
       <r>    8.2889   -0.0000 </r>
       <r>    8.4192   -0.0000 </r>
       <r>    8.4829   -0.0000 </r>
       <r>    8.6015   -0.0000 </r>
       <r>    8.6687   -0.0000 </r>
       <r>    8.7207   -0.0000 </r>
       <r>    8.7398   -0.0000 </r>
       <r>    8.7820   -0.0000 </r>
       <r>    8.9359   -0.0000 </r>
       <r>    8.9939   -0.0000 </r>
       <r>    9.1395   -0.0000 </r>
       <r>    9.2229   -0.0000 </r>
       <r>    9.3685   -0.0000 </r>
       <r>    9.3999   -0.0000 </r>
      </set>
      <set comment="kpoint 6">
       <r>  -46.9752    1.0000 </r>
       <r>  -46.9648    1.0000 </r>
       <r>  -46.9260    1.0000 </r>
       <r>  -46.8675    1.0000 </r>
       <r>  -46.8294    1.0000 </r>
       <r>  -46.7593    1.0000 </r>
       <r>  -23.5629    1.0000 </r>
       <r>  -23.4882    1.0000 </r>
       <r>  -23.4218    1.0000 </r>
       <r>  -23.3062    1.0000 </r>
       <r>  -23.1883    1.0000 </r>
       <r>  -23.1682    1.0000 </r>
       <r>  -23.1546    1.0000 </r>
       <r>  -23.1194    1.0000 </r>
       <r>  -23.1048    1.0000 </r>
       <r>  -23.0697    1.0000 </r>
       <r>  -23.0596    1.0000 </r>
       <r>  -23.0411    1.0000 </r>
       <r>  -22.9664    1.0000 </r>
       <r>  -22.9365    1.0000 </r>
       <r>  -22.8266    1.0000 </r>
       <r>  -22.7934    1.0000 </r>
       <r>  -22.7248    1.0000 </r>
       <r>  -22.5747    1.0000 </r>
       <r>    0.5490    1.0000 </r>
       <r>    1.5142    1.0000 </r>
       <r>    1.7170    1.0000 </r>
       <r>    2.3080    1.0000 </r>
       <r>    2.4527    1.0000 </r>
       <r>    2.5821    1.0000 </r>
       <r>    2.8534    1.0000 </r>
       <r>    2.9594    1.0000 </r>
       <r>    3.0362    1.0000 </r>
       <r>    3.1233    1.0000 </r>
       <r>    3.2164    1.0000 </r>
       <r>    3.3912    1.0000 </r>
       <r>    3.4449    1.0000 </r>
       <r>    3.4916    1.0000 </r>
       <r>    3.5581    1.0000 </r>
       <r>    3.6039    1.0000 </r>
       <r>    3.6423    1.0000 </r>
       <r>    3.6829    1.0000 </r>
       <r>    3.7110    1.0000 </r>
       <r>    3.7568    1.0000 </r>
       <r>    3.8566    1.0000 </r>
       <r>    3.8915    1.0000 </r>
       <r>    3.9403    1.0000 </r>
       <r>    4.0011    1.0000 </r>
       <r>    4.0985    1.0000 </r>
       <r>    4.1327    1.0000 </r>
       <r>    4.2167    1.0000 </r>
       <r>    4.2443    1.0000 </r>
       <r>    4.2762    1.0000 </r>
       <r>    4.3543    1.0000 </r>
       <r>    4.4264    1.0000 </r>
       <r>    4.5040    1.0000 </r>
       <r>    4.6379    1.0000 </r>
       <r>    4.7484    1.0000 </r>
       <r>    4.8131    1.0000 </r>
       <r>    4.8834    1.0000 </r>
       <r>    4.9229    1.0000 </r>
       <r>    4.9751    1.0000 </r>
       <r>    5.0275    1.0000 </r>
       <r>    5.0692    1.0000 </r>
       <r>    5.1213    1.0000 </r>
       <r>    5.1581    1.0000 </r>
       <r>    5.2145    1.0000 </r>
       <r>    5.2343    1.0000 </r>
       <r>    5.2954    1.0000 </r>
       <r>    5.3017    1.0000 </r>
       <r>    5.3614    1.0000 </r>
       <r>    5.4159    1.0000 </r>
       <r>    5.4404    1.0000 </r>
       <r>    5.5242    1.0000 </r>
       <r>    5.5499    1.0000 </r>
       <r>    5.6009    1.0000 </r>
       <r>    5.6239    1.0000 </r>
       <r>    5.6588    1.0000 </r>
       <r>    5.7253    1.0000 </r>
       <r>    5.7916    1.0000 </r>
       <r>    5.8161    1.0000 </r>
       <r>    5.8516    1.0000 </r>
       <r>    5.9178    1.0000 </r>
       <r>    5.9473    1.0000 </r>
       <r>    5.9689    1.0000 </r>
       <r>    6.0146    1.0000 </r>
       <r>    6.0542    1.0000 </r>
       <r>    6.1285    1.0000 </r>
       <r>    6.1726    1.0000 </r>
       <r>    6.2103    1.0000 </r>
       <r>    6.2537    1.0000 </r>
       <r>    6.2901    1.0000 </r>
       <r>    6.3257    1.0000 </r>
       <r>    6.3629    1.0000 </r>
       <r>    6.3943    1.0001 </r>
       <r>    6.4334    1.0002 </r>
       <r>    6.5064    1.0014 </r>
       <r>    6.5330    1.0024 </r>
       <r>    6.5665    1.0046 </r>
       <r>    6.5995    1.0081 </r>
       <r>    6.6608    1.0190 </r>
       <r>    6.7118    1.0304 </r>
       <r>    6.7598    1.0353 </r>
       <r>    6.8202    1.0101 </r>
       <r>    6.9049    0.8527 </r>
       <r>    6.9624    0.6512 </r>
       <r>    7.0663    0.2314 </r>
       <r>    7.0803    0.1848 </r>
       <r>    7.1520    0.0192 </r>
       <r>    7.3838   -0.0101 </r>
       <r>    7.4760   -0.0019 </r>
       <r>    7.6535   -0.0000 </r>
       <r>    7.9577   -0.0000 </r>
       <r>    8.2327   -0.0000 </r>
       <r>    8.4769   -0.0000 </r>
       <r>    8.6076   -0.0000 </r>
       <r>    8.7309   -0.0000 </r>
       <r>    8.7947   -0.0000 </r>
       <r>    8.8315   -0.0000 </r>
       <r>    8.9931   -0.0000 </r>
       <r>    9.0555   -0.0000 </r>
       <r>    9.0760   -0.0000 </r>
       <r>    9.1566   -0.0000 </r>
       <r>    9.2142   -0.0000 </r>
       <r>    9.2800   -0.0000 </r>
       <r>    9.3239   -0.0000 </r>
       <r>    9.3787   -0.0000 </r>
       <r>    9.4841   -0.0000 </r>
      </set>
      <set comment="kpoint 7">
       <r>  -46.9750    1.0000 </r>
       <r>  -46.9650    1.0000 </r>
       <r>  -46.9261    1.0000 </r>
       <r>  -46.8675    1.0000 </r>
       <r>  -46.8293    1.0000 </r>
       <r>  -46.7593    1.0000 </r>
       <r>  -23.5636    1.0000 </r>
       <r>  -23.4879    1.0000 </r>
       <r>  -23.4212    1.0000 </r>
       <r>  -23.3063    1.0000 </r>
       <r>  -23.1882    1.0000 </r>
       <r>  -23.1683    1.0000 </r>
       <r>  -23.1546    1.0000 </r>
       <r>  -23.1194    1.0000 </r>
       <r>  -23.1046    1.0000 </r>
       <r>  -23.0696    1.0000 </r>
       <r>  -23.0597    1.0000 </r>
       <r>  -23.0412    1.0000 </r>
       <r>  -22.9664    1.0000 </r>
       <r>  -22.9363    1.0000 </r>
       <r>  -22.8264    1.0000 </r>
       <r>  -22.7938    1.0000 </r>
       <r>  -22.7247    1.0000 </r>
       <r>  -22.5747    1.0000 </r>
       <r>    0.7164    1.0000 </r>
       <r>    1.4742    1.0000 </r>
       <r>    1.6234    1.0000 </r>
       <r>    2.0981    1.0000 </r>
       <r>    2.2630    1.0000 </r>
       <r>    2.6690    1.0000 </r>
       <r>    2.7589    1.0000 </r>
       <r>    2.9046    1.0000 </r>
       <r>    3.0604    1.0000 </r>
       <r>    3.1191    1.0000 </r>
       <r>    3.2579    1.0000 </r>
       <r>    3.2875    1.0000 </r>
       <r>    3.3892    1.0000 </r>
       <r>    3.4396    1.0000 </r>
       <r>    3.5372    1.0000 </r>
       <r>    3.5803    1.0000 </r>
       <r>    3.6611    1.0000 </r>
       <r>    3.7096    1.0000 </r>
       <r>    3.8224    1.0000 </r>
       <r>    3.8972    1.0000 </r>
       <r>    3.9847    1.0000 </r>
       <r>    3.9884    1.0000 </r>
       <r>    4.0586    1.0000 </r>
       <r>    4.0705    1.0000 </r>
       <r>    4.1515    1.0000 </r>
       <r>    4.1961    1.0000 </r>
       <r>    4.2616    1.0000 </r>
       <r>    4.3267    1.0000 </r>
       <r>    4.3888    1.0000 </r>
       <r>    4.4692    1.0000 </r>
       <r>    4.5164    1.0000 </r>
       <r>    4.5712    1.0000 </r>
       <r>    4.6797    1.0000 </r>
       <r>    4.7493    1.0000 </r>
       <r>    4.8316    1.0000 </r>
       <r>    4.8683    1.0000 </r>
       <r>    4.9197    1.0000 </r>
       <r>    4.9570    1.0000 </r>
       <r>    5.0009    1.0000 </r>
       <r>    5.0507    1.0000 </r>
       <r>    5.0681    1.0000 </r>
       <r>    5.0984    1.0000 </r>
       <r>    5.1184    1.0000 </r>
       <r>    5.1721    1.0000 </r>
       <r>    5.2122    1.0000 </r>
       <r>    5.2474    1.0000 </r>
       <r>    5.2766    1.0000 </r>
       <r>    5.3239    1.0000 </r>
       <r>    5.3679    1.0000 </r>
       <r>    5.4430    1.0000 </r>
       <r>    5.4800    1.0000 </r>
       <r>    5.5265    1.0000 </r>
       <r>    5.5905    1.0000 </r>
       <r>    5.6782    1.0000 </r>
       <r>    5.7076    1.0000 </r>
       <r>    5.7619    1.0000 </r>
       <r>    5.7753    1.0000 </r>
       <r>    5.8360    1.0000 </r>
       <r>    5.9010    1.0000 </r>
       <r>    5.9470    1.0000 </r>
       <r>    6.0018    1.0000 </r>
       <r>    6.0273    1.0000 </r>
       <r>    6.0716    1.0000 </r>
       <r>    6.1387    1.0000 </r>
       <r>    6.1963    1.0000 </r>
       <r>    6.2423    1.0000 </r>
       <r>    6.2738    1.0000 </r>
       <r>    6.3136    1.0000 </r>
       <r>    6.3763    1.0000 </r>
       <r>    6.3954    1.0001 </r>
       <r>    6.4239    1.0002 </r>
       <r>    6.4928    1.0010 </r>
       <r>    6.5493    1.0033 </r>
       <r>    6.5906    1.0070 </r>
       <r>    6.6463    1.0159 </r>
       <r>    6.6871    1.0250 </r>
       <r>    6.7063    1.0293 </r>
       <r>    6.7590    1.0354 </r>
       <r>    6.8092    1.0188 </r>
       <r>    6.8601    0.9575 </r>
       <r>    6.9210    0.8029 </r>
       <r>    6.9632    0.6478 </r>
       <r>    7.0220    0.4022 </r>
       <r>    7.0434    0.3161 </r>
       <r>    7.0868    0.1645 </r>
       <r>    7.1819   -0.0140 </r>
       <r>    7.3071   -0.0258 </r>
       <r>    7.3822   -0.0104 </r>
       <r>    7.9259   -0.0000 </r>
       <r>    8.3485   -0.0000 </r>
       <r>    8.4818   -0.0000 </r>
       <r>    8.7215   -0.0000 </r>
       <r>    8.7448   -0.0000 </r>
       <r>    8.8826   -0.0000 </r>
       <r>    8.9355   -0.0000 </r>
       <r>    8.9845   -0.0000 </r>
       <r>    9.0990   -0.0000 </r>
       <r>    9.1456   -0.0000 </r>
       <r>    9.2061   -0.0000 </r>
       <r>    9.2399   -0.0000 </r>
       <r>    9.2884   -0.0000 </r>
       <r>    9.3273   -0.0000 </r>
       <r>    9.4698   -0.0000 </r>
       <r>    9.5235   -0.0000 </r>
      </set>
      <set comment="kpoint 8">
       <r>  -46.9754    1.0000 </r>
       <r>  -46.9648    1.0000 </r>
       <r>  -46.9261    1.0000 </r>
       <r>  -46.8675    1.0000 </r>
       <r>  -46.8292    1.0000 </r>
       <r>  -46.7593    1.0000 </r>
       <r>  -23.5623    1.0000 </r>
       <r>  -23.4873    1.0000 </r>
       <r>  -23.4187    1.0000 </r>
       <r>  -23.3062    1.0000 </r>
       <r>  -23.1877    1.0000 </r>
       <r>  -23.1670    1.0000 </r>
       <r>  -23.1531    1.0000 </r>
       <r>  -23.1186    1.0000 </r>
       <r>  -23.1045    1.0000 </r>
       <r>  -23.0699    1.0000 </r>
       <r>  -23.0600    1.0000 </r>
       <r>  -23.0412    1.0000 </r>
       <r>  -22.9662    1.0000 </r>
       <r>  -22.9364    1.0000 </r>
       <r>  -22.8279    1.0000 </r>
       <r>  -22.7933    1.0000 </r>
       <r>  -22.7248    1.0000 </r>
       <r>  -22.5750    1.0000 </r>
       <r>    0.0365    1.0000 </r>
       <r>    1.4855    1.0000 </r>
       <r>    1.8511    1.0000 </r>
       <r>    2.0526    1.0000 </r>
       <r>    2.3386    1.0000 </r>
       <r>    2.5694    1.0000 </r>
       <r>    2.6824    1.0000 </r>
       <r>    2.7730    1.0000 </r>
       <r>    2.8481    1.0000 </r>
       <r>    2.9462    1.0000 </r>
       <r>    2.9782    1.0000 </r>
       <r>    3.0704    1.0000 </r>
       <r>    3.1118    1.0000 </r>
       <r>    3.1434    1.0000 </r>
       <r>    3.2345    1.0000 </r>
       <r>    3.3491    1.0000 </r>
       <r>    3.4792    1.0000 </r>
       <r>    3.5292    1.0000 </r>
       <r>    3.6093    1.0000 </r>
       <r>    3.6445    1.0000 </r>
       <r>    3.7886    1.0000 </r>
       <r>    3.8633    1.0000 </r>
       <r>    3.9155    1.0000 </r>
       <r>    4.0016    1.0000 </r>
       <r>    4.0457    1.0000 </r>
       <r>    4.0922    1.0000 </r>
       <r>    4.1730    1.0000 </r>
       <r>    4.1884    1.0000 </r>
       <r>    4.2752    1.0000 </r>
       <r>    4.3547    1.0000 </r>
       <r>    4.4293    1.0000 </r>
       <r>    4.5234    1.0000 </r>
       <r>    4.7340    1.0000 </r>
       <r>    4.7716    1.0000 </r>
       <r>    4.8136    1.0000 </r>
       <r>    4.8581    1.0000 </r>
       <r>    4.8621    1.0000 </r>
       <r>    4.9395    1.0000 </r>
       <r>    4.9849    1.0000 </r>
       <r>    5.0061    1.0000 </r>
       <r>    5.0604    1.0000 </r>
       <r>    5.1279    1.0000 </r>
       <r>    5.1565    1.0000 </r>
       <r>    5.1837    1.0000 </r>
       <r>    5.2369    1.0000 </r>
       <r>    5.2898    1.0000 </r>
       <r>    5.3034    1.0000 </r>
       <r>    5.3707    1.0000 </r>
       <r>    5.3862    1.0000 </r>
       <r>    5.4536    1.0000 </r>
       <r>    5.5835    1.0000 </r>
       <r>    5.7045    1.0000 </r>
       <r>    5.7297    1.0000 </r>
       <r>    5.8447    1.0000 </r>
       <r>    5.9237    1.0000 </r>
       <r>    6.0712    1.0000 </r>
       <r>    6.0974    1.0000 </r>
       <r>    6.1572    1.0000 </r>
       <r>    6.1687    1.0000 </r>
       <r>    6.2178    1.0000 </r>
       <r>    6.2610    1.0000 </r>
       <r>    6.3082    1.0000 </r>
       <r>    6.3399    1.0000 </r>
       <r>    6.4149    1.0001 </r>
       <r>    6.4672    1.0006 </r>
       <r>    6.4895    1.0009 </r>
       <r>    6.5321    1.0024 </r>
       <r>    6.5790    1.0057 </r>
       <r>    6.6030    1.0086 </r>
       <r>    6.6384    1.0144 </r>
       <r>    6.6756    1.0223 </r>
       <r>    6.6926    1.0263 </r>
       <r>    6.7482    1.0353 </r>
       <r>    6.8401    0.9883 </r>
       <r>    6.9035    0.8567 </r>
       <r>    6.9956    0.5133 </r>
       <r>    7.0748    0.2026 </r>
       <r>    7.0978    0.1324 </r>
       <r>    7.1462    0.0278 </r>
       <r>    7.2110   -0.0304 </r>
       <r>    7.2509   -0.0353 </r>
       <r>    7.2964   -0.0282 </r>
       <r>    7.3463   -0.0169 </r>
       <r>    7.4486   -0.0033 </r>
       <r>    7.6173   -0.0001 </r>
       <r>    7.7219   -0.0000 </r>
       <r>    7.8401   -0.0000 </r>
       <r>    7.9906   -0.0000 </r>
       <r>    8.1117   -0.0000 </r>
       <r>    8.1480   -0.0000 </r>
       <r>    8.3149   -0.0000 </r>
       <r>    8.4044   -0.0000 </r>
       <r>    8.5257   -0.0000 </r>
       <r>    8.5800   -0.0000 </r>
       <r>    8.7086   -0.0000 </r>
       <r>    8.8953   -0.0000 </r>
       <r>    8.9301   -0.0000 </r>
       <r>    8.9812   -0.0000 </r>
       <r>    9.0639   -0.0000 </r>
       <r>    9.1022   -0.0000 </r>
       <r>    9.1679   -0.0000 </r>
       <r>    9.1738   -0.0000 </r>
       <r>    9.2338   -0.0000 </r>
       <r>    9.2977   -0.0000 </r>
      </set>
      <set comment="kpoint 9">
       <r>  -46.9752    1.0000 </r>
       <r>  -46.9651    1.0000 </r>
       <r>  -46.9261    1.0000 </r>
       <r>  -46.8676    1.0000 </r>
       <r>  -46.8291    1.0000 </r>
       <r>  -46.7593    1.0000 </r>
       <r>  -23.5609    1.0000 </r>
       <r>  -23.4864    1.0000 </r>
       <r>  -23.4164    1.0000 </r>
       <r>  -23.3088    1.0000 </r>
       <r>  -23.1871    1.0000 </r>
       <r>  -23.1659    1.0000 </r>
       <r>  -23.1524    1.0000 </r>
       <r>  -23.1180    1.0000 </r>
       <r>  -23.1044    1.0000 </r>
       <r>  -23.0700    1.0000 </r>
       <r>  -23.0602    1.0000 </r>
       <r>  -23.0409    1.0000 </r>
       <r>  -22.9663    1.0000 </r>
       <r>  -22.9364    1.0000 </r>
       <r>  -22.8275    1.0000 </r>
       <r>  -22.7933    1.0000 </r>
       <r>  -22.7249    1.0000 </r>
       <r>  -22.5757    1.0000 </r>
       <r>    0.1249    1.0000 </r>
       <r>    0.8467    1.0000 </r>
       <r>    1.7798    1.0000 </r>
       <r>    1.9895    1.0000 </r>
       <r>    2.3260    1.0000 </r>
       <r>    2.4247    1.0000 </r>
       <r>    2.5620    1.0000 </r>
       <r>    2.6516    1.0000 </r>
       <r>    2.6978    1.0000 </r>
       <r>    2.8246    1.0000 </r>
       <r>    2.9436    1.0000 </r>
       <r>    3.0282    1.0000 </r>
       <r>    3.1276    1.0000 </r>
       <r>    3.2430    1.0000 </r>
       <r>    3.2849    1.0000 </r>
       <r>    3.3509    1.0000 </r>
       <r>    3.4365    1.0000 </r>
       <r>    3.4774    1.0000 </r>
       <r>    3.5418    1.0000 </r>
       <r>    3.6023    1.0000 </r>
       <r>    3.6654    1.0000 </r>
       <r>    3.7526    1.0000 </r>
       <r>    3.8079    1.0000 </r>
       <r>    3.8387    1.0000 </r>
       <r>    3.9228    1.0000 </r>
       <r>    3.9711    1.0000 </r>
       <r>    4.0222    1.0000 </r>
       <r>    4.0559    1.0000 </r>
       <r>    4.1176    1.0000 </r>
       <r>    4.2527    1.0000 </r>
       <r>    4.4714    1.0000 </r>
       <r>    4.5665    1.0000 </r>
       <r>    4.6650    1.0000 </r>
       <r>    4.6948    1.0000 </r>
       <r>    4.7970    1.0000 </r>
       <r>    4.8546    1.0000 </r>
       <r>    4.8948    1.0000 </r>
[...]
       <r>    5.3808    1.0000 </r>
       <r>    5.4365    1.0000 </r>
       <r>    5.4656    1.0000 </r>
       <r>    5.4896    1.0000 </r>
       <r>    5.5261    1.0000 </r>
       <r>    5.5563    1.0000 </r>
       <r>    5.6385    1.0000 </r>
       <r>    5.6764    1.0000 </r>
       <r>    5.7424    1.0000 </r>
       <r>    5.8109    1.0000 </r>
       <r>    5.8733    1.0000 </r>
       <r>    5.9687    1.0000 </r>
       <r>    6.0114    1.0000 </r>
       <r>    6.0545    1.0000 </r>
       <r>    6.1149    1.0000 </r>
       <r>    6.1479    1.0000 </r>
       <r>    6.1994    1.0000 </r>
       <r>    6.2229    1.0000 </r>
       <r>    6.2950    1.0000 </r>
       <r>    6.3238    1.0000 </r>
       <r>    6.3620    1.0000 </r>
       <r>    6.4188    1.0002 </r>
       <r>    6.4491    1.0004 </r>
       <r>    6.5053    1.0013 </r>
       <r>    6.5449    1.0030 </r>
       <r>    6.5786    1.0057 </r>
       <r>    6.6308    1.0129 </r>
       <r>    6.6842    1.0243 </r>
       <r>    6.7598    1.0353 </r>
       <r>    6.8130    1.0161 </r>
       <r>    6.8540    0.9679 </r>
       <r>    6.8887    0.8963 </r>
       <r>    6.9512    0.6950 </r>
       <r>    7.0758    0.1992 </r>
       <r>    7.0855    0.1684 </r>
       <r>    7.1356    0.0457 </r>
       <r>    7.1820   -0.0141 </r>
       <r>    7.3555   -0.0151 </r>
       <r>    7.4125   -0.0064 </r>
       <r>    7.5418   -0.0004 </r>
       <r>    7.7589   -0.0000 </r>
       <r>    7.8519   -0.0000 </r>
       <r>    7.9434   -0.0000 </r>
       <r>    8.1314   -0.0000 </r>
       <r>    8.1935   -0.0000 </r>
       <r>    8.2831   -0.0000 </r>
       <r>    8.3885   -0.0000 </r>
       <r>    8.4223   -0.0000 </r>
       <r>    8.5193   -0.0000 </r>
       <r>    8.5344   -0.0000 </r>
       <r>    8.6271   -0.0000 </r>
       <r>    8.6879   -0.0000 </r>
       <r>    8.7790   -0.0000 </r>
       <r>    8.8593   -0.0000 </r>
       <r>    9.0026   -0.0000 </r>
       <r>    9.0604   -0.0000 </r>
       <r>    9.0951   -0.0000 </r>
       <r>    9.1461   -0.0000 </r>
       <r>    9.2254   -0.0000 </r>
       <r>    9.3153   -0.0000 </r>
      </set>
     </set>
    </set>
   </array>
  </eigenvalues>
  <separator name="orbital magnetization" >
   <v name="MAGDIPOLOUT">      0.00000000      0.00000000      0.00000000</v>
  </separator>
  <dos>
   <i name="efermi">      6.99874838 </i>
   <total>
    <array>
     <dimension dim="1">gridpoints</dimension>
     <dimension dim="2">spin</dimension>
     <field>energy</field>
     <field>total</field>
     <field>integrated</field>
     <set>
      <set comment="spin 1">
       <r>   -49.8047     0.0000     0.0000 </r>
       <r>   -49.5973     0.0000     0.0000 </r>
       <r>   -49.3899     0.0000     0.0000 </r>
       <r>   -49.1824     0.0000     0.0000 </r>
       <r>   -48.9750     0.0000     0.0000 </r>
       <r>   -48.7676    -0.0000    -0.0000 </r>
       <r>   -48.5601    -0.0000    -0.0000 </r>
       <r>   -48.3527    -0.0000    -0.0000 </r>
       <r>   -48.1453    -0.0000    -0.0000 </r>
       <r>   -47.9378    -0.0000    -0.0000 </r>
       <r>   -47.7304    -0.0000    -0.0000 </r>
       <r>   -47.5230    -0.0076    -0.0016 </r>
       <r>   -47.3155    -0.4697    -0.0990 </r>
       <r>   -47.1081     0.3878    -0.0186 </r>
       <r>   -46.9007    26.8316     5.5472 </r>
       <r>   -46.6932    29.3878    11.6432 </r>
       <r>   -46.4858     2.3810    12.1371 </r>
       <r>   -46.2784    -0.6392    12.0045 </r>
       <r>   -46.0709    -0.0217    12.0000 </r>
       <r>   -45.8635    -0.0001    12.0000 </r>
       <r>   -45.6561    -0.0000    12.0000 </r>
       <r>   -45.4486    -0.0000    12.0000 </r>
       <r>   -45.2412     0.0000    12.0000 </r>
       <r>   -45.0338     0.0000    12.0000 </r>
       <r>   -44.8263     0.0000    12.0000 </r>
       <r>   -44.6189     0.0000    12.0000 </r>
       <r>   -44.4115     0.0000    12.0000 </r>
       <r>   -44.2040     0.0000    12.0000 </r>
       <r>   -43.9966     0.0000    12.0000 </r>
       <r>   -43.7892     0.0000    12.0000 </r>
       <r>   -43.5817     0.0000    12.0000 </r>
       <r>   -43.3743     0.0000    12.0000 </r>
       <r>   -43.1669     0.0000    12.0000 </r>
       <r>   -42.9594     0.0000    12.0000 </r>
       <r>   -42.7520     0.0000    12.0000 </r>
       <r>   -42.5446     0.0000    12.0000 </r>
       <r>   -42.3371     0.0000    12.0000 </r>
       <r>   -42.1297     0.0000    12.0000 </r>
       <r>   -41.9223     0.0000    12.0000 </r>
       <r>   -41.7148     0.0000    12.0000 </r>
       <r>   -41.5074     0.0000    12.0000 </r>
       <r>   -41.3000     0.0000    12.0000 </r>
       <r>   -41.0925     0.0000    12.0000 </r>
       <r>   -40.8851     0.0000    12.0000 </r>
       <r>   -40.6777     0.0000    12.0000 </r>
       <r>   -40.4702     0.0000    12.0000 </r>
       <r>   -40.2628     0.0000    12.0000 </r>
       <r>   -40.0554     0.0000    12.0000 </r>
       <r>   -39.8479     0.0000    12.0000 </r>
       <r>   -39.6405     0.0000    12.0000 </r>
       <r>   -39.4331     0.0000    12.0000 </r>
       <r>   -39.2256     0.0000    12.0000 </r>
       <r>   -39.0182     0.0000    12.0000 </r>
       <r>   -38.8108     0.0000    12.0000 </r>
       <r>   -38.6033     0.0000    12.0000 </r>
       <r>   -38.3959     0.0000    12.0000 </r>
       <r>   -38.1885     0.0000    12.0000 </r>
       <r>   -37.9810     0.0000    12.0000 </r>
       <r>   -37.7736     0.0000    12.0000 </r>
       <r>   -37.5662     0.0000    12.0000 </r>
       <r>   -37.3587     0.0000    12.0000 </r>
       <r>   -37.1513     0.0000    12.0000 </r>
       <r>   -36.9439     0.0000    12.0000 </r>
       <r>   -36.7364     0.0000    12.0000 </r>
       <r>   -36.5290     0.0000    12.0000 </r>
       <r>   -36.3216     0.0000    12.0000 </r>
       <r>   -36.1141     0.0000    12.0000 </r>
       <r>   -35.9067     0.0000    12.0000 </r>
       <r>   -35.6993     0.0000    12.0000 </r>
       <r>   -35.4918     0.0000    12.0000 </r>
       <r>   -35.2844     0.0000    12.0000 </r>
       <r>   -35.0770     0.0000    12.0000 </r>
       <r>   -34.8695     0.0000    12.0000 </r>
       <r>   -34.6621     0.0000    12.0000 </r>
       <r>   -34.4547     0.0000    12.0000 </r>
       <r>   -34.2472     0.0000    12.0000 </r>
       <r>   -34.0398     0.0000    12.0000 </r>
       <r>   -33.8324     0.0000    12.0000 </r>
       <r>   -33.6249     0.0000    12.0000 </r>
       <r>   -33.4175     0.0000    12.0000 </r>
       <r>   -33.2101     0.0000    12.0000 </r>
       <r>   -33.0026     0.0000    12.0000 </r>
       <r>   -32.7952     0.0000    12.0000 </r>
       <r>   -32.5878     0.0000    12.0000 </r>
       <r>   -32.3803     0.0000    12.0000 </r>
       <r>   -32.1729     0.0000    12.0000 </r>
       <r>   -31.9655     0.0000    12.0000 </r>
       <r>   -31.7580     0.0000    12.0000 </r>
       <r>   -31.5506     0.0000    12.0000 </r>
       <r>   -31.3432     0.0000    12.0000 </r>
       <r>   -31.1357     0.0000    12.0000 </r>
       <r>   -30.9283     0.0000    12.0000 </r>
       <r>   -30.7209     0.0000    12.0000 </r>
       <r>   -30.5134     0.0000    12.0000 </r>
       <r>   -30.3060     0.0000    12.0000 </r>
       <r>   -30.0986     0.0000    12.0000 </r>
       <r>   -29.8911     0.0000    12.0000 </r>
       <r>   -29.6837     0.0000    12.0000 </r>
       <r>   -29.4763     0.0000    12.0000 </r>
       <r>   -29.2688     0.0000    12.0000 </r>
       <r>   -29.0614     0.0000    12.0000 </r>
       <r>   -28.8540     0.0000    12.0000 </r>
       <r>   -28.6465     0.0000    12.0000 </r>
       <r>   -28.4391     0.0000    12.0000 </r>
       <r>   -28.2317     0.0000    12.0000 </r>
       <r>   -28.0242     0.0000    12.0000 </r>
       <r>   -27.8168     0.0000    12.0000 </r>
       <r>   -27.6094     0.0000    12.0000 </r>
       <r>   -27.4019     0.0000    12.0000 </r>
       <r>   -27.1945     0.0000    12.0000 </r>
       <r>   -26.9871     0.0000    12.0000 </r>
       <r>   -26.7796     0.0000    12.0000 </r>
       <r>   -26.5722     0.0000    12.0000 </r>
       <r>   -26.3648     0.0000    12.0000 </r>
       <r>   -26.1573     0.0000    12.0000 </r>
       <r>   -25.9499     0.0000    12.0000 </r>
       <r>   -25.7425     0.0000    12.0000 </r>
       <r>   -25.5350     0.0000    12.0000 </r>
       <r>   -25.3276    -0.0000    12.0000 </r>
       <r>   -25.1202    -0.0000    12.0000 </r>
       <r>   -24.9127    -0.0000    12.0000 </r>
       <r>   -24.7053    -0.0000    12.0000 </r>
       <r>   -24.4979    -0.0000    12.0000 </r>
       <r>   -24.2904    -0.0000    12.0000 </r>
       <r>   -24.0830    -0.0081    11.9983 </r>
       <r>   -23.8756    -0.3525    11.9252 </r>
       <r>   -23.6681     0.8252    12.0964 </r>
       <r>   -23.4607    15.8020    15.3742 </r>
       <r>   -23.2533    24.8469    20.5283 </r>
       <r>   -23.0458    57.2049    32.3945 </r>
       <r>   -22.8384    44.8957    41.7074 </r>
       <r>   -22.6310    22.7068    46.4175 </r>
       <r>   -22.4235     7.8918    48.0546 </r>
       <r>   -22.2161    -0.1103    48.0317 </r>
       <r>   -22.0087    -0.1504    48.0005 </r>
       <r>   -21.8012    -0.0023    48.0000 </r>
       <r>   -21.5938    -0.0000    48.0000 </r>
       <r>   -21.3864    -0.0000    48.0000 </r>
       <r>   -21.1789    -0.0000    48.0000 </r>
       <r>   -20.9715     0.0000    48.0000 </r>
       <r>   -20.7641     0.0000    48.0000 </r>
       <r>   -20.5566     0.0000    48.0000 </r>
       <r>   -20.3492     0.0000    48.0000 </r>
       <r>   -20.1418     0.0000    48.0000 </r>
       <r>   -19.9343     0.0000    48.0000 </r>
       <r>   -19.7269     0.0000    48.0000 </r>
       <r>   -19.5195     0.0000    48.0000 </r>
       <r>   -19.3120     0.0000    48.0000 </r>
       <r>   -19.1046     0.0000    48.0000 </r>
       <r>   -18.8972     0.0000    48.0000 </r>
       <r>   -18.6897     0.0000    48.0000 </r>
       <r>   -18.4823     0.0000    48.0000 </r>
       <r>   -18.2749     0.0000    48.0000 </r>
       <r>   -18.0674     0.0000    48.0000 </r>
       <r>   -17.8600     0.0000    48.0000 </r>
       <r>   -17.6526     0.0000    48.0000 </r>
       <r>   -17.4451     0.0000    48.0000 </r>
       <r>   -17.2377     0.0000    48.0000 </r>
       <r>   -17.0303     0.0000    48.0000 </r>
       <r>   -16.8228     0.0000    48.0000 </r>
       <r>   -16.6154     0.0000    48.0000 </r>
       <r>   -16.4080     0.0000    48.0000 </r>
       <r>   -16.2005     0.0000    48.0000 </r>
       <r>   -15.9931     0.0000    48.0000 </r>
       <r>   -15.7857     0.0000    48.0000 </r>
       <r>   -15.5782     0.0000    48.0000 </r>
       <r>   -15.3708     0.0000    48.0000 </r>
       <r>   -15.1634     0.0000    48.0000 </r>
       <r>   -14.9559     0.0000    48.0000 </r>
       <r>   -14.7485     0.0000    48.0000 </r>
       <r>   -14.5411     0.0000    48.0000 </r>
       <r>   -14.3336     0.0000    48.0000 </r>
       <r>   -14.1262     0.0000    48.0000 </r>
       <r>   -13.9188     0.0000    48.0000 </r>
       <r>   -13.7113     0.0000    48.0000 </r>
       <r>   -13.5039     0.0000    48.0000 </r>
       <r>   -13.2965     0.0000    48.0000 </r>
       <r>   -13.0890     0.0000    48.0000 </r>
       <r>   -12.8816     0.0000    48.0000 </r>
       <r>   -12.6742     0.0000    48.0000 </r>
       <r>   -12.4667     0.0000    48.0000 </r>
       <r>   -12.2593     0.0000    48.0000 </r>
       <r>   -12.0519     0.0000    48.0000 </r>
       <r>   -11.8444     0.0000    48.0000 </r>
       <r>   -11.6370     0.0000    48.0000 </r>
       <r>   -11.4296     0.0000    48.0000 </r>
       <r>   -11.2221     0.0000    48.0000 </r>
       <r>   -11.0147     0.0000    48.0000 </r>
       <r>   -10.8073     0.0000    48.0000 </r>
       <r>   -10.5998     0.0000    48.0000 </r>
       <r>   -10.3924     0.0000    48.0000 </r>
       <r>   -10.1850     0.0000    48.0000 </r>
       <r>    -9.9775     0.0000    48.0000 </r>
       <r>    -9.7701     0.0000    48.0000 </r>
       <r>    -9.5627     0.0000    48.0000 </r>
       <r>    -9.3552     0.0000    48.0000 </r>
       <r>    -9.1478     0.0000    48.0000 </r>
       <r>    -8.9404     0.0000    48.0000 </r>
       <r>    -8.7329     0.0000    48.0000 </r>
       <r>    -8.5255     0.0000    48.0000 </r>
       <r>    -8.3181     0.0000    48.0000 </r>
       <r>    -8.1106     0.0000    48.0000 </r>
       <r>    -7.9032     0.0000    48.0000 </r>
       <r>    -7.6958     0.0000    48.0000 </r>
       <r>    -7.4883     0.0000    48.0000 </r>
       <r>    -7.2809     0.0000    48.0000 </r>
       <r>    -7.0735     0.0000    48.0000 </r>
       <r>    -6.8660     0.0000    48.0000 </r>
       <r>    -6.6586     0.0000    48.0000 </r>
       <r>    -6.4512     0.0000    48.0000 </r>
       <r>    -6.2437     0.0000    48.0000 </r>
       <r>    -6.0363     0.0000    48.0000 </r>
       <r>    -5.8289     0.0000    48.0000 </r>
       <r>    -5.6214     0.0000    48.0000 </r>
       <r>    -5.4140     0.0000    48.0000 </r>
       <r>    -5.2066     0.0000    48.0000 </r>
       <r>    -4.9991     0.0000    48.0000 </r>
       <r>    -4.7917     0.0000    48.0000 </r>
       <r>    -4.5843     0.0000    48.0000 </r>
       <r>    -4.3768     0.0000    48.0000 </r>
       <r>    -4.1694     0.0000    48.0000 </r>
       <r>    -3.9620     0.0000    48.0000 </r>
       <r>    -3.7545     0.0000    48.0000 </r>
       <r>    -3.5471     0.0000    48.0000 </r>
       <r>    -3.3397     0.0000    48.0000 </r>
       <r>    -3.1322     0.0000    48.0000 </r>
       <r>    -2.9248     0.0000    48.0000 </r>
       <r>    -2.7174     0.0000    48.0000 </r>
       <r>    -2.5099     0.0000    48.0000 </r>
       <r>    -2.3025     0.0000    48.0000 </r>
       <r>    -2.0951    -0.0000    48.0000 </r>
       <r>    -1.8876    -0.0000    48.0000 </r>
       <r>    -1.6802    -0.0000    48.0000 </r>
       <r>    -1.4728    -0.0000    48.0000 </r>
       <r>    -1.2653    -0.0000    48.0000 </r>
       <r>    -1.0579    -0.0000    48.0000 </r>
       <r>    -0.8505    -0.0002    47.9999 </r>
       <r>    -0.6430    -0.0074    47.9984 </r>
       <r>    -0.4356     0.0067    47.9998 </r>
       <r>    -0.2282     0.3700    48.0766 </r>
       <r>    -0.0207     1.1246    48.3099 </r>
       <r>     0.1867     1.6375    48.6495 </r>
       <r>     0.3941     1.5560    48.9723 </r>
       <r>     0.6016     1.9423    49.3752 </r>
       <r>     0.8090     2.3810    49.8691 </r>
       <r>     1.0164     2.8047    50.4509 </r>
       <r>     1.2239     2.8402    51.0400 </r>
       <r>     1.4313     3.3555    51.7361 </r>
       <r>     1.6387     4.7696    52.7255 </r>
       <r>     1.8462     4.2649    53.6101 </r>
       <r>     2.0536     3.9480    54.4291 </r>
       <r>     2.2610     5.8523    55.6431 </r>
       <r>     2.4685     9.9771    57.7127 </r>
       <r>     2.6759    14.7055    60.7631 </r>
       <r>     2.8833    18.5211    64.6050 </r>
       <r>     3.0908    22.0235    69.1734 </r>
       <r>     3.2982    24.9027    74.3390 </r>
       <r>     3.5056    28.3506    80.2199 </r>
       <r>     3.7131    32.5848    86.9791 </r>
       <r>     3.9205    32.2535    93.6695 </r>
       <r>     4.1279    32.0012   100.3076 </r>
       <r>     4.3354    30.3673   106.6068 </r>
       <r>     4.5428    21.6660   111.1011 </r>
       <r>     4.7502    20.3923   115.3311 </r>
       <r>     4.9577    33.4060   122.2606 </r>
       <r>     5.1651    43.0387   131.1883 </r>
       <r>     5.3725    45.5979   140.6468 </r>
       <r>     5.5800    39.7718   148.8968 </r>
       <r>     5.7874    35.4949   156.2596 </r>
       <r>     5.9948    35.2924   163.5804 </r>
       <r>     6.2023    39.2707   171.7265 </r>
       <r>     6.4097    43.7186   180.7952 </r>
       <r>     6.6171    43.2721   189.7713 </r>
       <r>     6.8246    38.9628   197.8535 </r>
       <r>     7.0320    34.9801   205.1095 </r>
       <r>     7.2394    29.9354   211.3191 </r>
       <r>     7.4469    21.1286   215.7019 </r>
       <r>     7.6543    15.0496   218.8237 </r>
       <r>     7.8617    14.0001   221.7278 </r>
       <r>     8.0692    13.0509   224.4350 </r>
       <r>     8.2766    14.3954   227.4211 </r>
       <r>     8.4840    16.9324   230.9334 </r>
       <r>     8.6915    21.0582   235.3016 </r>
       <r>     8.8989    25.4586   240.5825 </r>
       <r>     9.1063    28.5349   246.5016 </r>
       <r>     9.3138    27.3620   252.1774 </r>
       <r>     9.5212    16.1924   255.5363 </r>
       <r>     9.7286     2.6278   256.0814 </r>
       <r>     9.9361    -0.3578   256.0071 </r>
       <r>    10.1435    -0.0341   256.0001 </r>
       <r>    10.3509    -0.0003   256.0000 </r>
       <r>    10.5584    -0.0000   256.0000 </r>
       <r>    10.7658    -0.0000   256.0000 </r>
       <r>    10.9732    -0.0000   256.0000 </r>
       <r>    11.1807     0.0000   256.0000 </r>
       <r>    11.3881     0.0000   256.0000 </r>
       <r>    11.5955     0.0000   256.0000 </r>
       <r>    11.8030     0.0000   256.0000 </r>
       <r>    12.0104     0.0000   256.0000 </r>
       <r>    12.2178     0.0000   256.0000 </r>
       <r>    12.4253     0.0000   256.0000 </r>
      </set>
     </set>
    </array>
   </total>
  </dos>
 </calculation>
 <structure name="finalpos" >
  <crystal>
   <varray name="basis" >
    <v>       0.00000000       0.00000000       6.36000000 </v>
    <v>       7.95000000       1.59000000       1.59000000 </v>
    <v>       0.00000000       9.54000000       3.18000000 </v>
   </varray>
   <i name="volume">    482.36148000 </i>
   <varray name="rec_basis" >
    <v>      -0.02096436      -0.05241090       0.15723270 </v>
    <v>       0.12578616       0.00000000       0.00000000 </v>
    <v>      -0.02096436       0.10482180       0.00000000 </v>
   </varray>
  </crystal>
  <varray name="positions" >
   <v>       0.00000000       0.00000000       0.00000000 </v>
   <v>       0.83333333       0.00000000       0.33333333 </v>
   <v>       0.10000000       0.40000000       0.60000000 </v>
   <v>       0.20000000       0.80000000       0.20000000 </v>
   <v>       0.80000000       0.20000000       0.80000000 </v>
   <v>       0.93333333       0.40000000       0.93333333 </v>
   <v>       0.50000000       0.00000000       0.00000000 </v>
   <v>       0.33333333       0.00000000       0.33333333 </v>
   <v>       0.46666667       0.20000000       0.46666667 </v>
   <v>       0.23333333       0.60000000       0.73333333 </v>
   <v>       0.73333333       0.60000000       0.73333333 </v>
   <v>       0.86666667       0.80000000       0.86666667 </v>
   <v>       0.13333333       0.20000000       0.13333333 </v>
   <v>       0.63333333       0.20000000       0.13333333 </v>
   <v>       0.66666667       0.00000000       0.66666667 </v>
   <v>       0.76666667       0.40000000       0.26666667 </v>
   <v>       0.40000000       0.60000000       0.40000000 </v>
   <v>       0.60000000       0.40000000       0.60000000 </v>
   <v>       0.16666667       0.00000000       0.66666667 </v>
   <v>       0.26666667       0.40000000       0.26666667 </v>
   <v>       0.30000000       0.20000000       0.80000000 </v>
   <v>       0.90000000       0.60000000       0.40000000 </v>
   <v>       0.53333333       0.80000000       0.53333333 </v>
   <v>       0.36666667       0.80000000       0.86666667 </v>
   <v>       0.06666667       0.60000000       0.06666667 </v>
   <v>       0.56666667       0.60000000       0.06666667 </v>
   <v>       0.96666667       0.20000000       0.46666667 </v>
   <v>       0.70000000       0.80000000       0.20000000 </v>
   <v>       0.03333333       0.80000000       0.53333333 </v>
   <v>       0.43333333       0.40000000       0.93333333 </v>
  </varray>
 </structure>
</modeling>
