  29  29   0   0
  0.1679057E+02  0.5525242E-09  0.8287863E-09  0.1139058E-08  0.5000000E-15
  1.000000000000000E-004
  CAR 
 SQS with 1 vacancy for VFE and VRV      
     12.14751516    -50.11348620  301      6.86180807      1.00000000
    -50.113  0.0000E+00  0.0000E+00
    -49.906  0.0000E+00  0.0000E+00
    -49.698  0.0000E+00  0.0000E+00
    -49.491  0.0000E+00  0.0000E+00
    -49.283  0.0000E+00  0.0000E+00
    -49.076 -0.9504E-35 -0.1972E-35
    -48.868 -0.3653E-27 -0.7581E-28
    -48.661 -0.1603E-20 -0.3326E-21
    -48.453 -0.7805E-15 -0.1620E-15
    -48.246 -0.4476E-10 -0.9289E-11
    -48.038 -0.2902E-06 -0.6023E-07
    -47.831 -0.2100E-03 -0.4364E-04
    -47.623 -0.1538E-01 -0.3236E-02
    -47.416 -0.1908E-01 -0.7195E-02
    -47.208  0.1025E+01  0.2056E+00
    -47.000  0.1645E+01  0.5470E+00
    -46.793  0.3033E+00  0.6100E+00
    -46.585 -0.4557E-01  0.6005E+00
    -46.378 -0.2488E-02  0.6000E+00
    -46.170 -0.1031E-04  0.6000E+00
    -45.963 -0.4399E-08  0.6000E+00
    -45.755 -0.2055E-12  0.6000E+00
    -45.548  0.0000E+00  0.6000E+00
    -45.340  0.0000E+00  0.6000E+00
    -45.133  0.0000E+00  0.6000E+00
    -44.925  0.0000E+00  0.6000E+00
    -44.718  0.0000E+00  0.6000E+00
    -44.510  0.0000E+00  0.6000E+00
    -44.302  0.0000E+00  0.6000E+00
    -44.095  0.0000E+00  0.6000E+00
    -43.887  0.0000E+00  0.6000E+00
    -43.680  0.0000E+00  0.6000E+00
    -43.472  0.0000E+00  0.6000E+00
    -43.265  0.0000E+00  0.6000E+00
    -43.057  0.0000E+00  0.6000E+00
    -42.850  0.0000E+00  0.6000E+00
    -42.642  0.0000E+00  0.6000E+00
    -42.435  0.0000E+00  0.6000E+00
    -42.227  0.0000E+00  0.6000E+00
    -42.020  0.0000E+00  0.6000E+00
    -41.812  0.0000E+00  0.6000E+00
    -41.604  0.0000E+00  0.6000E+00
    -41.397  0.0000E+00  0.6000E+00
    -41.189  0.0000E+00  0.6000E+00
    -40.982  0.0000E+00  0.6000E+00
    -40.774  0.0000E+00  0.6000E+00
    -40.567  0.0000E+00  0.6000E+00
    -40.359  0.0000E+00  0.6000E+00
    -40.152  0.0000E+00  0.6000E+00
    -39.944  0.0000E+00  0.6000E+00
    -39.737  0.0000E+00  0.6000E+00
    -39.529  0.0000E+00  0.6000E+00
    -39.322  0.0000E+00  0.6000E+00
    -39.114  0.0000E+00  0.6000E+00
    -38.907  0.0000E+00  0.6000E+00
    -38.699  0.0000E+00  0.6000E+00
    -38.491  0.0000E+00  0.6000E+00
    -38.284  0.0000E+00  0.6000E+00
    -38.076  0.0000E+00  0.6000E+00
    -37.869  0.0000E+00  0.6000E+00
    -37.661  0.0000E+00  0.6000E+00
    -37.454  0.0000E+00  0.6000E+00
    -37.246  0.0000E+00  0.6000E+00
    -37.039  0.0000E+00  0.6000E+00
    -36.831  0.0000E+00  0.6000E+00
    -36.624  0.0000E+00  0.6000E+00
    -36.416  0.0000E+00  0.6000E+00
    -36.209  0.0000E+00  0.6000E+00
    -36.001  0.0000E+00  0.6000E+00
    -35.793  0.0000E+00  0.6000E+00
    -35.586  0.0000E+00  0.6000E+00
    -35.378  0.0000E+00  0.6000E+00
    -35.171  0.0000E+00  0.6000E+00
    -34.963  0.0000E+00  0.6000E+00
    -34.756  0.0000E+00  0.6000E+00
    -34.548  0.0000E+00  0.6000E+00
    -34.341  0.0000E+00  0.6000E+00
    -34.133  0.0000E+00  0.6000E+00
    -33.926  0.0000E+00  0.6000E+00
    -33.718  0.0000E+00  0.6000E+00
    -33.511  0.0000E+00  0.6000E+00
    -33.303  0.0000E+00  0.6000E+00
    -33.095  0.0000E+00  0.6000E+00
    -32.888  0.0000E+00  0.6000E+00
    -32.680  0.0000E+00  0.6000E+00
    -32.473  0.0000E+00  0.6000E+00
    -32.265  0.0000E+00  0.6000E+00
    -32.058  0.0000E+00  0.6000E+00
    -31.850  0.0000E+00  0.6000E+00
    -31.643  0.0000E+00  0.6000E+00
    -31.435  0.0000E+00  0.6000E+00
    -31.228  0.0000E+00  0.6000E+00
    -31.020  0.0000E+00  0.6000E+00
    -30.813  0.0000E+00  0.6000E+00
    -30.605  0.0000E+00  0.6000E+00
    -30.398  0.0000E+00  0.6000E+00
    -30.190  0.0000E+00  0.6000E+00
    -29.982  0.0000E+00  0.6000E+00
    -29.775  0.0000E+00  0.6000E+00
    -29.567  0.0000E+00  0.6000E+00
    -29.360  0.0000E+00  0.6000E+00
    -29.152  0.0000E+00  0.6000E+00
    -28.945  0.0000E+00  0.6000E+00
    -28.737  0.0000E+00  0.6000E+00
    -28.530  0.0000E+00  0.6000E+00
    -28.322  0.0000E+00  0.6000E+00
    -28.115  0.0000E+00  0.6000E+00
    -27.907  0.0000E+00  0.6000E+00
    -27.700  0.0000E+00  0.6000E+00
    -27.492  0.0000E+00  0.6000E+00
    -27.284  0.0000E+00  0.6000E+00
    -27.077  0.0000E+00  0.6000E+00
    -26.869  0.0000E+00  0.6000E+00
    -26.662  0.0000E+00  0.6000E+00
    -26.454  0.0000E+00  0.6000E+00
    -26.247  0.0000E+00  0.6000E+00
    -26.039  0.0000E+00  0.6000E+00
    -25.832  0.0000E+00  0.6000E+00
    -25.624 -0.5703E-31  0.6000E+00
    -25.417 -0.6282E-24  0.6000E+00
    -25.209 -0.7894E-18  0.6000E+00
    -25.002 -0.1089E-12  0.6000E+00
    -24.794 -0.1733E-08  0.6000E+00
    -24.586 -0.3076E-05  0.6000E+00
    -24.379 -0.5923E-03  0.5999E+00
    -24.171 -0.1041E-01  0.5977E+00
    -23.964  0.3801E-01  0.6056E+00
    -23.756  0.4757E+00  0.7043E+00
    -23.549  0.1184E+01  0.9501E+00
    -23.341  0.2508E+01  0.1471E+01
    -23.134  0.2575E+01  0.2005E+01
    -22.926  0.1251E+01  0.2265E+01
    -22.719  0.6278E+00  0.2395E+01
    -22.511  0.3669E-01  0.2403E+01
    -22.304 -0.1154E-01  0.2400E+01
    -22.096 -0.7346E-03  0.2400E+01
    -21.888 -0.4744E-05  0.2400E+01
    -21.681 -0.3297E-08  0.2400E+01
    -21.473 -0.2513E-12  0.2400E+01
    -21.266  0.0000E+00  0.2400E+01
    -21.058  0.0000E+00  0.2400E+01
    -20.851  0.0000E+00  0.2400E+01
    -20.643  0.0000E+00  0.2400E+01
    -20.436  0.0000E+00  0.2400E+01
    -20.228  0.0000E+00  0.2400E+01
    -20.021  0.0000E+00  0.2400E+01
    -19.813  0.0000E+00  0.2400E+01
    -19.606  0.0000E+00  0.2400E+01
    -19.398  0.0000E+00  0.2400E+01
    -19.191  0.0000E+00  0.2400E+01
    -18.983  0.0000E+00  0.2400E+01
    -18.775  0.0000E+00  0.2400E+01
    -18.568  0.0000E+00  0.2400E+01
    -18.360  0.0000E+00  0.2400E+01
    -18.153  0.0000E+00  0.2400E+01
    -17.945  0.0000E+00  0.2400E+01
    -17.738  0.0000E+00  0.2400E+01
    -17.530  0.0000E+00  0.2400E+01
    -17.323  0.0000E+00  0.2400E+01
    -17.115  0.0000E+00  0.2400E+01
    -16.908  0.0000E+00  0.2400E+01
    -16.700  0.0000E+00  0.2400E+01
    -16.493  0.0000E+00  0.2400E+01
    -16.285  0.0000E+00  0.2400E+01
    -16.077  0.0000E+00  0.2400E+01
    -15.870  0.0000E+00  0.2400E+01
    -15.662  0.0000E+00  0.2400E+01
    -15.455  0.0000E+00  0.2400E+01
    -15.247  0.0000E+00  0.2400E+01
    -15.040  0.0000E+00  0.2400E+01
    -14.832  0.0000E+00  0.2400E+01
    -14.625  0.0000E+00  0.2400E+01
    -14.417  0.0000E+00  0.2400E+01
    -14.210  0.0000E+00  0.2400E+01
    -14.002  0.0000E+00  0.2400E+01
    -13.795  0.0000E+00  0.2400E+01
    -13.587  0.0000E+00  0.2400E+01
    -13.379  0.0000E+00  0.2400E+01
    -13.172  0.0000E+00  0.2400E+01
    -12.964  0.0000E+00  0.2400E+01
    -12.757  0.0000E+00  0.2400E+01
    -12.549  0.0000E+00  0.2400E+01
    -12.342  0.0000E+00  0.2400E+01
    -12.134  0.0000E+00  0.2400E+01
    -11.927  0.0000E+00  0.2400E+01
    -11.719  0.0000E+00  0.2400E+01
    -11.512  0.0000E+00  0.2400E+01
    -11.304  0.0000E+00  0.2400E+01
    -11.097  0.0000E+00  0.2400E+01
    -10.889  0.0000E+00  0.2400E+01
    -10.682  0.0000E+00  0.2400E+01
    -10.474  0.0000E+00  0.2400E+01
    -10.266  0.0000E+00  0.2400E+01
    -10.059  0.0000E+00  0.2400E+01
     -9.851  0.0000E+00  0.2400E+01
     -9.644  0.0000E+00  0.2400E+01
     -9.436  0.0000E+00  0.2400E+01
     -9.229  0.0000E+00  0.2400E+01
     -9.021  0.0000E+00  0.2400E+01
     -8.814  0.0000E+00  0.2400E+01
     -8.606  0.0000E+00  0.2400E+01
     -8.399  0.0000E+00  0.2400E+01
     -8.191  0.0000E+00  0.2400E+01
     -7.984  0.0000E+00  0.2400E+01
     -7.776  0.0000E+00  0.2400E+01
     -7.568  0.0000E+00  0.2400E+01
     -7.361  0.0000E+00  0.2400E+01
     -7.153  0.0000E+00  0.2400E+01
     -6.946  0.0000E+00  0.2400E+01
     -6.738  0.0000E+00  0.2400E+01
     -6.531  0.0000E+00  0.2400E+01
     -6.323  0.0000E+00  0.2400E+01
     -6.116  0.0000E+00  0.2400E+01
     -5.908  0.0000E+00  0.2400E+01
     -5.701  0.0000E+00  0.2400E+01
     -5.493  0.0000E+00  0.2400E+01
     -5.286  0.0000E+00  0.2400E+01
     -5.078  0.0000E+00  0.2400E+01
     -4.870  0.0000E+00  0.2400E+01
     -4.663  0.0000E+00  0.2400E+01
     -4.455  0.0000E+00  0.2400E+01
     -4.248  0.0000E+00  0.2400E+01
     -4.040  0.0000E+00  0.2400E+01
     -3.833  0.0000E+00  0.2400E+01
     -3.625  0.0000E+00  0.2400E+01
     -3.418  0.0000E+00  0.2400E+01
     -3.210  0.0000E+00  0.2400E+01
     -3.003  0.0000E+00  0.2400E+01
     -2.795  0.0000E+00  0.2400E+01
     -2.588  0.0000E+00  0.2400E+01
     -2.380  0.0000E+00  0.2400E+01
     -2.173 -0.3940E-31  0.2400E+01
     -1.965 -0.3046E-24  0.2400E+01
     -1.757 -0.2699E-18  0.2400E+01
     -1.550 -0.2639E-13  0.2400E+01
     -1.342 -0.3015E-09  0.2400E+01
     -1.135 -0.3898E-06  0.2400E+01
     -0.927 -0.5524E-04  0.2400E+01
     -0.720 -0.6504E-03  0.2400E+01
     -0.512  0.4092E-02  0.2401E+01
     -0.305  0.2874E-01  0.2407E+01
     -0.097  0.6237E-01  0.2420E+01
      0.110  0.9183E-01  0.2439E+01
      0.318  0.7817E-01  0.2455E+01
      0.525  0.9296E-01  0.2474E+01
      0.733  0.1545E+00  0.2506E+01
      0.941  0.1578E+00  0.2539E+01
      1.148  0.1421E+00  0.2568E+01
      1.356  0.1600E+00  0.2602E+01
      1.563  0.2265E+00  0.2649E+01
      1.771  0.1831E+00  0.2687E+01
      1.978  0.2612E+00  0.2741E+01
      2.186  0.4163E+00  0.2827E+01
      2.393  0.5896E+00  0.2950E+01
      2.601  0.8018E+00  0.3116E+01
      2.808  0.9394E+00  0.3311E+01
      3.016  0.1131E+01  0.3546E+01
      3.223  0.1386E+01  0.3833E+01
      3.431  0.1443E+01  0.4133E+01
      3.639  0.1454E+01  0.4435E+01
      3.846  0.1522E+01  0.4751E+01
      4.054  0.1552E+01  0.5073E+01
      4.261  0.1407E+01  0.5365E+01
      4.469  0.1190E+01  0.5611E+01
      4.676  0.1395E+01  0.5901E+01
      4.884  0.1837E+01  0.6282E+01
      5.091  0.1985E+01  0.6694E+01
      5.299  0.2029E+01  0.7115E+01
      5.506  0.1850E+01  0.7499E+01
      5.714  0.1806E+01  0.7874E+01
      5.921  0.1849E+01  0.8258E+01
      6.129  0.1945E+01  0.8662E+01
      6.336  0.1988E+01  0.9074E+01
      6.544  0.1942E+01  0.9477E+01
      6.752  0.1696E+01  0.9829E+01
      6.959  0.1502E+01  0.1014E+02
      7.167  0.1202E+01  0.1039E+02
      7.374  0.9155E+00  0.1058E+02
      7.582  0.8502E+00  0.1076E+02
      7.789  0.8298E+00  0.1093E+02
      7.997  0.8302E+00  0.1110E+02
      8.204  0.9531E+00  0.1130E+02
      8.412  0.1043E+01  0.1152E+02
      8.619  0.9807E+00  0.1172E+02
      8.827  0.7313E+00  0.1187E+02
      9.034  0.4374E+00  0.1196E+02
      9.242  0.1631E+00  0.1200E+02
      9.450  0.2403E-01  0.1200E+02
      9.657 -0.2821E-02  0.1200E+02
      9.865 -0.4385E-03  0.1200E+02
     10.072 -0.5459E-05  0.1200E+02
     10.280 -0.7504E-08  0.1200E+02
     10.487 -0.1172E-11  0.1200E+02
     10.695 -0.2054E-16  0.1200E+02
     10.902  0.0000E+00  0.1200E+02
     11.110  0.0000E+00  0.1200E+02
     11.317  0.0000E+00  0.1200E+02
     11.525  0.0000E+00  0.1200E+02
     11.732  0.0000E+00  0.1200E+02
     11.940  0.0000E+00  0.1200E+02
     12.148  0.0000E+00  0.1200E+02
