   29   29   20    1
  0.1679057E+02  0.5525242E-09  0.8287863E-09  0.1139058E-08  0.5000000E-15
  1.000000000000000E-004
  CAR 
 SQS with 1 vacancy for VFE and VRV      
    200     63    120
 
  0.0000000E+00  0.0000000E+00  0.0000000E+00  0.8000000E-02
    1      -47.283441   1.000000
    2      -47.226674   1.000000
    3      -47.199610   1.000000
    4      -47.142478   1.000000
    5      -47.054440   1.000000
    6      -47.036455   1.000000
    7      -23.945348   1.000000
    8      -23.731658   1.000000
    9      -23.650560   1.000000
   10      -23.601918   1.000000
   11      -23.466398   1.000000
   12      -23.423430   1.000000
   13      -23.394566   1.000000
   14      -23.370189   1.000000
   15      -23.361192   1.000000
   16      -23.311426   1.000000
   17      -23.276398   1.000000
   18      -23.242519   1.000000
   19      -23.227869   1.000000
   20      -23.212396   1.000000
   21      -23.030842   1.000000
   22      -22.986802   1.000000
   23      -22.908401   1.000000
   24      -22.720651   1.000000
   25       -0.528093   1.000000
   26        0.847137   1.000000
   27        1.166522   1.000000
   28        2.080628   1.000000
   29        2.086634   1.000000
   30        2.148961   1.000000
   31        2.281606   1.000000
   32        2.424432   1.000000
   33        2.572089   1.000000
   34        2.659634   1.000000
   35        2.682003   1.000000
   36        2.724763   1.000000
   37        2.824756   1.000000
   38        2.902317   1.000000
   39        2.963555   1.000000
   40        3.103068   1.000000
   41        3.227874   1.000000
   42        3.234600   1.000000
   43        3.350541   1.000000
   44        3.397705   1.000000
   45        3.473825   1.000000
   46        3.575391   1.000000
   47        3.598407   1.000000
   48        3.642777   1.000000
   49        3.688720   1.000000
   50        3.795815   1.000000
   51        3.857474   1.000000
   52        3.870887   1.000000
   53        3.949844   1.000000
   54        4.065207   1.000000
   55        4.102847   1.000000
   56        4.212679   1.000000
   57        4.298743   1.000000
   58        4.416302   1.000000
   59        4.562155   1.000000
   60        4.578139   1.000000
   61        4.629686   1.000000
   62        4.676870   1.000000
   63        4.768996   1.000000
   64        4.825734   1.000000
   65        4.882070   1.000000
   66        4.918281   1.000000
   67        5.002707   1.000000
   68        5.012597   1.000000
   69        5.094677   1.000000
   70        5.114860   1.000000
   71        5.158252   1.000000
   72        5.190806   1.000000
   73        5.300523   1.000000
   74        5.315103   1.000000
   75        5.354523   1.000000
   76        5.492321   1.000000
   77        5.573918   1.000000
   78        5.625102   1.000000
   79        5.704115   1.000000
   80        5.767990   1.000000
   81        5.905224   1.000000
   82        5.975035   1.000000
   83        6.047956   1.000000
   84        6.092533   1.000000
   85        6.166288   1.000005
   86        6.174682   1.000007
   87        6.272167   1.000124
   88        6.304375   1.000292
   89        6.360867   1.001134
   90        6.411465   1.003264
   91        6.461382   1.007940
   92        6.554454   1.025987
   93        6.670820   1.019797
   94        6.777617   0.823650
   95        6.808026   0.718703
   96        6.876420   0.438355
   97        6.934328   0.214362
   98        6.987355   0.067929
   99        7.041074  -0.010757
  100        7.096304  -0.035006
  101        7.171438  -0.025464
  102        7.251726  -0.009377
  103        7.497895  -0.000033
  104        7.525928  -0.000014
  105        7.605563  -0.000001
  106        7.756382  -0.000000
  107        7.873113  -0.000000
  108        7.976640  -0.000000
  109        8.126227  -0.000000
  110        8.153110  -0.000000
  111        8.551188  -0.000000
  112        8.661681  -0.000000
  113        8.667656  -0.000000
  114        8.795545  -0.000000
  115        8.813753  -0.000000
  116        8.940925  -0.000000
  117        9.005154  -0.000000
  118        9.099332  -0.000000
  119        9.155267  -0.000000
  120        9.213189  -0.000000
 
  0.2000000E+00 -0.1387779E-16  0.0000000E+00  0.1600000E-01
    1      -47.278576   1.000000
    2      -47.222933   1.000000
    3      -47.199428   1.000000
    4      -47.141971   1.000000
    5      -47.054687   1.000000
    6      -47.044629   1.000000
    7      -23.860974   1.000000
    8      -23.726063   1.000000
    9      -23.635059   1.000000
   10      -23.600411   1.000000
   11      -23.475760   1.000000
   12      -23.415254   1.000000
   13      -23.395284   1.000000
   14      -23.373445   1.000000
   15      -23.364022   1.000000
   16      -23.315205   1.000000
   17      -23.280734   1.000000
   18      -23.243097   1.000000
   19      -23.232304   1.000000
   20      -23.220836   1.000000
   21      -23.034109   1.000000
   22      -22.989985   1.000000
   23      -22.914894   1.000000
   24      -22.828861   1.000000
   25       -0.213776   1.000000
   26        1.107054   1.000000
   27        1.435652   1.000000
   28        2.159555   1.000000
   29        2.289768   1.000000
   30        2.381695   1.000000
   31        2.465666   1.000000
   32        2.602804   1.000000
   33        2.692566   1.000000
   34        2.767820   1.000000
   35        2.846063   1.000000
   36        2.921031   1.000000
   37        3.032934   1.000000
   38        3.091593   1.000000
   39        3.169464   1.000000
   40        3.216071   1.000000
   41        3.311425   1.000000
   42        3.387833   1.000000
   43        3.410046   1.000000
   44        3.455383   1.000000
   45        3.553418   1.000000
   46        3.686545   1.000000
   47        3.725760   1.000000
   48        3.782072   1.000000
   49        3.910992   1.000000
   50        3.932542   1.000000
   51        3.958150   1.000000
   52        4.014841   1.000000
   53        4.045400   1.000000
   54        4.134345   1.000000
   55        4.184995   1.000000
   56        4.280461   1.000000
   57        4.386143   1.000000
   58        4.482226   1.000000
   59        4.585312   1.000000
   60        4.635325   1.000000
   61        4.712639   1.000000
   62        4.831109   1.000000
   63        4.855142   1.000000
   64        4.889213   1.000000
   65        4.940197   1.000000
   66        4.969947   1.000000
   67        5.044143   1.000000
   68        5.083785   1.000000
   69        5.109864   1.000000
   70        5.199060   1.000000
   71        5.220594   1.000000
   72        5.292727   1.000000
   73        5.379401   1.000000
   74        5.410561   1.000000
   75        5.427982   1.000000
   76        5.566350   1.000000
   77        5.635728   1.000000
   78        5.654793   1.000000
   79        5.669184   1.000000
   80        5.728730   1.000000
   81        5.796846   1.000000
   82        5.876375   1.000000
   83        5.952939   1.000000
   84        6.015748   1.000000
   85        6.080027   1.000000
   86        6.126544   1.000001
   87        6.201716   1.000016
   88        6.256182   1.000080
   89        6.345945   1.000807
   90        6.357622   1.001054
   91        6.398164   1.002509
   92        6.425337   1.004246
   93        6.507193   1.015488
   94        6.552718   1.025588
   95        6.608197   1.035185
   96        6.694854   0.998416
   97        6.722394   0.958846
   98        6.816998   0.684431
   99        6.880247   0.422345
  100        6.936092   0.208426
  101        7.004826   0.034969
  102        7.035260  -0.005310
  103        7.142506  -0.031644
  104        7.265050  -0.007584
  105        7.330627  -0.002258
  106        7.449112  -0.000133
  107        7.504292  -0.000027
  108        7.703228  -0.000000
  109        7.829415  -0.000000
  110        7.963624  -0.000000
  111        8.042879  -0.000000
  112        8.130943  -0.000000
  113        8.175085  -0.000000
  114        8.292093  -0.000000
  115        8.372946  -0.000000
  116        8.468172  -0.000000
  117        8.569017  -0.000000
  118        8.656085  -0.000000
  119        8.682000  -0.000000
  120        8.811062  -0.000000
 
  0.4000000E+00 -0.2775558E-16  0.0000000E+00  0.1600000E-01
    1      -47.271184   1.000000
    2      -47.214166   1.000000
    3      -47.199840   1.000000
    4      -47.141182   1.000000
    5      -47.059670   1.000000
    6      -47.054766   1.000000
    7      -23.756152   1.000000
    8      -23.689522   1.000000
    9      -23.599359   1.000000
   10      -23.531304   1.000000
   11      -23.470479   1.000000
   12      -23.402468   1.000000
   13      -23.394537   1.000000
   14      -23.381296   1.000000
   15      -23.366247   1.000000
   16      -23.321281   1.000000
   17      -23.294622   1.000000
   18      -23.246096   1.000000
   19      -23.239572   1.000000
   20      -23.233811   1.000000
   21      -23.124520   1.000000
   22      -23.029597   1.000000
   23      -22.973398   1.000000
   24      -22.922620   1.000000
   25        0.596358   1.000000
   26        1.547654   1.000000
   27        2.051240   1.000000
   28        2.175256   1.000000
   29        2.437873   1.000000
   30        2.615252   1.000000
   31        2.688385   1.000000
   32        2.857127   1.000000
   33        2.971985   1.000000
   34        3.034099   1.000000
   35        3.164287   1.000000
   36        3.250120   1.000000
   37        3.260276   1.000000
   38        3.373764   1.000000
   39        3.436604   1.000000
   40        3.470823   1.000000
   41        3.543775   1.000000
   42        3.595886   1.000000
   43        3.613732   1.000000
   44        3.717739   1.000000
   45        3.779808   1.000000
   46        3.832595   1.000000
   47        3.971536   1.000000
   48        4.059375   1.000000
   49        4.066444   1.000000
   50        4.136885   1.000000
   51        4.247894   1.000000
   52        4.268467   1.000000
   53        4.345199   1.000000
   54        4.410592   1.000000
   55        4.483305   1.000000
   56        4.541759   1.000000
   57        4.602660   1.000000
   58        4.643708   1.000000
   59        4.702545   1.000000
   60        4.738696   1.000000
   61        4.767562   1.000000
   62        4.812355   1.000000
   63        4.902853   1.000000
   64        4.926152   1.000000
   65        4.963152   1.000000
   66        5.028592   1.000000
   67        5.081777   1.000000
   68        5.137990   1.000000
   69        5.193083   1.000000
   70        5.247442   1.000000
   71        5.288222   1.000000
   72        5.349002   1.000000
   73        5.378731   1.000000
   74        5.441495   1.000000
   75        5.506777   1.000000
   76        5.528040   1.000000
   77        5.600695   1.000000
   78        5.662670   1.000000
   79        5.689250   1.000000
   80        5.707360   1.000000
   81        5.801679   1.000000
   82        5.823614   1.000000
   83        5.945244   1.000000
   84        5.967356   1.000000
   85        5.991558   1.000000
   86        6.016057   1.000000
   87        6.066869   1.000000
   88        6.138363   1.000002
   89        6.152928   1.000003
   90        6.250584   1.000068
   91        6.286234   1.000182
   92        6.309778   1.000335
   93        6.343989   1.000771
   94        6.399037   1.002554
   95        6.431065   1.004716
   96        6.489254   1.012138
   97        6.523507   1.018919
   98        6.582105   1.031826
   99        6.626950   1.035038
  100        6.678355   1.014275
  101        6.763309   0.865947
  102        6.823826   0.657547
  103        6.878878   0.428061
  104        6.938408   0.200732
  105        7.026849   0.003782
  106        7.058510  -0.023330
  107        7.151625  -0.029850
  108        7.229216  -0.013049
  109        7.334825  -0.002071
  110        7.439132  -0.000174
  111        7.585754  -0.000002
  112        7.691539  -0.000000
  113        7.767799  -0.000000
  114        7.890038  -0.000000
  115        7.989707  -0.000000
  116        8.027359  -0.000000
  117        8.110220  -0.000000
  118        8.385216  -0.000000
  119        8.425810  -0.000000
  120        8.451369  -0.000000
 
  0.0000000E+00  0.2000000E+00  0.1387779E-16  0.1600000E-01
    1      -47.283429   1.000000
    2      -47.226661   1.000000
    3      -47.199510   1.000000
    4      -47.142163   1.000000
    5      -47.054873   1.000000
    6      -47.036451   1.000000
    7      -23.945364   1.000000
    8      -23.729629   1.000000
    9      -23.649423   1.000000
   10      -23.598865   1.000000
   11      -23.466419   1.000000
   12      -23.423579   1.000000
   13      -23.394588   1.000000
   14      -23.370248   1.000000
   15      -23.361287   1.000000
   16      -23.311619   1.000000
   17      -23.276431   1.000000
   18      -23.242439   1.000000
   19      -23.227582   1.000000
   20      -23.212473   1.000000
   21      -23.031218   1.000000
   22      -22.987995   1.000000
   23      -22.914294   1.000000
   24      -22.720658   1.000000
   25       -0.385776   1.000000
   26        0.904193   1.000000
   27        1.241721   1.000000
   28        1.692291   1.000000
   29        2.030146   1.000000
   30        2.226317   1.000000
   31        2.295055   1.000000
   32        2.488709   1.000000
   33        2.558956   1.000000
   34        2.622319   1.000000
   35        2.718278   1.000000
   36        2.766138   1.000000
   37        2.846485   1.000000
   38        2.934970   1.000000
   39        3.009364   1.000000
   40        3.043047   1.000000
   41        3.102303   1.000000
   42        3.186803   1.000000
   43        3.266631   1.000000
   44        3.348926   1.000000
   45        3.453745   1.000000
   46        3.558893   1.000000
   47        3.636642   1.000000
   48        3.731793   1.000000
   49        3.791870   1.000000
   50        3.833388   1.000000
   51        3.883800   1.000000
   52        3.906423   1.000000
   53        3.970080   1.000000
   54        4.087883   1.000000
   55        4.143798   1.000000
   56        4.235413   1.000000
   57        4.310210   1.000000
   58        4.457341   1.000000
   59        4.536594   1.000000
   60        4.605190   1.000000
   61        4.652123   1.000000
   62        4.764827   1.000000
   63        4.806957   1.000000
   64        4.899268   1.000000
   65        4.980741   1.000000
   66        5.004690   1.000000
   67        5.044016   1.000000
   68        5.096689   1.000000
   69        5.123271   1.000000
   70        5.178727   1.000000
   71        5.210670   1.000000
   72        5.259386   1.000000
   73        5.332319   1.000000
   74        5.362192   1.000000
   75        5.426821   1.000000
   76        5.499551   1.000000
   77        5.558130   1.000000
   78        5.629329   1.000000
   79        5.717764   1.000000
   80        5.810160   1.000000
   81        5.906157   1.000000
   82        5.967064   1.000000
   83        6.034924   1.000000
   84        6.072685   1.000000
   85        6.099492   1.000000
   86        6.126261   1.000001
   87        6.176819   1.000007
   88        6.225999   1.000033
   89        6.284023   1.000171
   90        6.365596   1.001260
   91        6.405841   1.002925
   92        6.443730   1.005905
   93        6.474693   1.009790
   94        6.615488   1.035451
   95        6.704662   0.986307
   96        6.798742   0.752714
   97        6.872779   0.453653
   98        6.949337   0.166047
   99        7.021148   0.010802
  100        7.101426  -0.035344
  101        7.262784  -0.007869
  102        7.366041  -0.001053
  103        7.424173  -0.000257
  104        7.555105  -0.000005
  105        7.647524  -0.000000
  106        7.720574  -0.000000
  107        7.822916  -0.000000
  108        7.973006  -0.000000
  109        8.052311  -0.000000
  110        8.143177  -0.000000
  111        8.207426  -0.000000
  112        8.332558  -0.000000
  113        8.414284  -0.000000
  114        8.643176  -0.000000
  115        8.730783  -0.000000
  116        8.788239  -0.000000
  117        8.839348  -0.000000
  118        8.918505  -0.000000
  119        8.969890  -0.000000
  120        9.057007  -0.000000
 
  0.2000000E+00  0.2000000E+00 -0.4857226E-16  0.1600000E-01
    1      -47.278586   1.000000
    2      -47.222945   1.000000
    3      -47.199523   1.000000
    4      -47.142276   1.000000
    5      -47.054271   1.000000
    6      -47.044631   1.000000
    7      -23.860970   1.000000
    8      -23.728203   1.000000
    9      -23.636151   1.000000
   10      -23.603218   1.000000
   11      -23.475741   1.000000
   12      -23.415189   1.000000
   13      -23.395210   1.000000
   14      -23.373441   1.000000
   15      -23.363992   1.000000
   16      -23.315233   1.000000
   17      -23.280700   1.000000
   18      -23.243206   1.000000
   19      -23.232221   1.000000
   20      -23.220731   1.000000
   21      -23.033729   1.000000
   22      -22.988784   1.000000
   23      -22.909205   1.000000
   24      -22.828847   1.000000
   25       -0.206133   1.000000
   26        1.057521   1.000000
   27        1.453723   1.000000
   28        2.035817   1.000000
   29        2.262161   1.000000
   30        2.360846   1.000000
   31        2.443876   1.000000
   32        2.502887   1.000000
   33        2.654318   1.000000
   34        2.779473   1.000000
   35        2.851085   1.000000
   36        2.940127   1.000000
   37        2.999816   1.000000
   38        3.059878   1.000000
   39        3.159226   1.000000
   40        3.212395   1.000000
   41        3.240983   1.000000
   42        3.330078   1.000000
   43        3.463405   1.000000
   44        3.523794   1.000000
   45        3.606141   1.000000
   46        3.645901   1.000000
   47        3.731104   1.000000
   48        3.805438   1.000000
   49        3.847704   1.000000
   50        3.909170   1.000000
   51        3.995438   1.000000
   52        4.025404   1.000000
   53        4.065906   1.000000
   54        4.123636   1.000000
   55        4.194532   1.000000
   56        4.307722   1.000000
   57        4.449714   1.000000
   58        4.475534   1.000000
   59        4.575707   1.000000
   60        4.664925   1.000000
   61        4.692594   1.000000
   62        4.751023   1.000000
   63        4.801338   1.000000
   64        4.890961   1.000000
   65        4.967800   1.000000
   66        4.994894   1.000000
   67        5.057553   1.000000
   68        5.085154   1.000000
   69        5.118761   1.000000
   70        5.154059   1.000000
   71        5.195318   1.000000
   72        5.255659   1.000000
   73        5.311011   1.000000
   74        5.347238   1.000000
   75        5.407650   1.000000
   76        5.458888   1.000000
   77        5.582311   1.000000
   78        5.595044   1.000000
   79        5.732995   1.000000
   80        5.766288   1.000000
   81        5.810978   1.000000
   82        5.857412   1.000000
   83        5.918452   1.000000
   84        5.974736   1.000000
   85        6.033653   1.000000
   86        6.060977   1.000000
   87        6.173486   1.000006
   88        6.266024   1.000105
   89        6.339275   1.000690
   90        6.377525   1.001633
   91        6.392291   1.002226
   92        6.456202   1.007295
   93        6.507639   1.015577
   94        6.607026   1.035110
   95        6.717367   0.967387
   96        6.769150   0.849273
   97        6.834419   0.614696
   98        6.871045   0.460959
   99        6.955049   0.149025
  100        7.014817   0.019443
  101        7.062952  -0.025711
  102        7.157163  -0.028674
  103        7.215359  -0.015701
  104        7.268745  -0.007136
  105        7.297222  -0.004330
  106        7.347015  -0.001601
  107        7.509767  -0.000023
  108        7.572652  -0.000003
  109        7.802510  -0.000000
  110        7.961551  -0.000000
  111        8.030402  -0.000000
  112        8.140283  -0.000000
  113        8.413559  -0.000000
  114        8.567751  -0.000000
  115        8.627059  -0.000000
  116        8.791194  -0.000000
  117        8.879452  -0.000000
  118        8.974690  -0.000000
  119        9.049180  -0.000000
  120        9.107147  -0.000000
 
  0.4000000E+00  0.2000000E+00 -0.5551115E-16  0.1600000E-01
    1      -47.271203   1.000000
    2      -47.214183   1.000000
    3      -47.199992   1.000000
    4      -47.141691   1.000000
    5      -47.059651   1.000000
    6      -47.054103   1.000000
    7      -23.757453   1.000000
    8      -23.692319   1.000000
    9      -23.605137   1.000000
   10      -23.531463   1.000000
   11      -23.470410   1.000000
   12      -23.402474   1.000000
   13      -23.394311   1.000000
   14      -23.381287   1.000000
   15      -23.366240   1.000000
   16      -23.321255   1.000000
   17      -23.294581   1.000000
   18      -23.246112   1.000000
   19      -23.239569   1.000000
   20      -23.233778   1.000000
   21      -23.124459   1.000000
   22      -23.028304   1.000000
   23      -22.970969   1.000000
   24      -22.914264   1.000000
   25        0.512609   1.000000
   26        1.492516   1.000000
   27        1.929599   1.000000
   28        2.128817   1.000000
   29        2.234608   1.000000
   30        2.428926   1.000000
   31        2.711728   1.000000
   32        2.963281   1.000000
   33        3.053442   1.000000
   34        3.140388   1.000000
   35        3.224987   1.000000
   36        3.262088   1.000000
   37        3.316053   1.000000
   38        3.417355   1.000000
   39        3.481471   1.000000
   40        3.521434   1.000000
   41        3.584160   1.000000
   42        3.606524   1.000000
   43        3.653845   1.000000
   44        3.714004   1.000000
   45        3.741992   1.000000
   46        3.824936   1.000000
   47        3.886670   1.000000
   48        3.967635   1.000000
   49        4.030340   1.000000
   50        4.095282   1.000000
   51        4.161195   1.000000
   52        4.184359   1.000000
   53        4.263127   1.000000
   54        4.316604   1.000000
   55        4.375018   1.000000
   56        4.427473   1.000000
   57        4.535953   1.000000
   58        4.642078   1.000000
   59        4.698846   1.000000
   60        4.755060   1.000000
   61        4.820165   1.000000
   62        4.857978   1.000000
   63        4.890260   1.000000
   64        4.964262   1.000000
   65        4.988319   1.000000
   66        5.021591   1.000000
   67        5.040482   1.000000
   68        5.136559   1.000000
   69        5.147808   1.000000
   70        5.217436   1.000000
   71        5.278483   1.000000
   72        5.314812   1.000000
   73        5.340183   1.000000
   74        5.436314   1.000000
   75        5.505604   1.000000
   76        5.558052   1.000000
   77        5.587248   1.000000
   78        5.654161   1.000000
   79        5.716641   1.000000
   80        5.756335   1.000000
   81        5.817887   1.000000
   82        5.840251   1.000000
   83        5.921998   1.000000
   84        5.961323   1.000000
   85        6.021038   1.000000
   86        6.045951   1.000000
   87        6.069427   1.000000
   88        6.105632   1.000001
   89        6.113668   1.000001
   90        6.200464   1.000015
   91        6.256044   1.000079
   92        6.266656   1.000107
   93        6.334034   1.000609
   94        6.380017   1.001722
   95        6.412229   1.003313
   96        6.472348   1.009443
   97        6.519324   1.018009
   98        6.533716   1.021207
   99        6.633567   1.034256
  100        6.692041   1.001507
  101        6.734208   0.936338
  102        6.807351   0.721228
  103        6.860481   0.505616
  104        6.954846   0.149615
  105        7.032366  -0.002347
  106        7.119174  -0.034913
  107        7.267242  -0.007315
  108        7.351933  -0.001440
  109        7.518832  -0.000017
  110        7.583642  -0.000002
  111        7.685760  -0.000000
  112        7.887115  -0.000000
  113        8.107509  -0.000000
  114        8.196724  -0.000000
  115        8.270373  -0.000000
  116        8.354632  -0.000000
  117        8.451270  -0.000000
  118        8.492160  -0.000000
  119        8.563407  -0.000000
  120        8.624941  -0.000000
 
 -0.4000000E+00  0.2000000E+00 -0.3908332E-16  0.1600000E-01
    1      -47.271182   1.000000
    2      -47.214167   1.000000
    3      -47.199837   1.000000
    4      -47.141177   1.000000
    5      -47.059670   1.000000
    6      -47.054774   1.000000
    7      -23.756136   1.000000
    8      -23.689507   1.000000
    9      -23.599322   1.000000
   10      -23.531300   1.000000
   11      -23.470505   1.000000
   12      -23.402504   1.000000
   13      -23.394534   1.000000
   14      -23.381353   1.000000
   15      -23.366236   1.000000
   16      -23.321382   1.000000
   17      -23.294610   1.000000
   18      -23.246122   1.000000
   19      -23.239424   1.000000
   20      -23.233755   1.000000
   21      -23.124506   1.000000
   22      -23.029574   1.000000
   23      -22.973427   1.000000
   24      -22.922726   1.000000
   25        0.852151   1.000000
   26        1.494946   1.000000
   27        1.794363   1.000000
   28        2.226539   1.000000
   29        2.269457   1.000000
   30        2.547214   1.000000
   31        2.679465   1.000000
   32        2.854564   1.000000
   33        2.972907   1.000000
   34        3.085509   1.000000
   35        3.129156   1.000000
   36        3.247443   1.000000
   37        3.276213   1.000000
   38        3.350629   1.000000
   39        3.415455   1.000000
   40        3.449230   1.000000
   41        3.536785   1.000000
   42        3.584441   1.000000
   43        3.681369   1.000000
   44        3.727623   1.000000
   45        3.778965   1.000000
   46        3.838995   1.000000
   47        3.991233   1.000000
   48        4.027219   1.000000
   49        4.055411   1.000000
   50        4.219146   1.000000
   51        4.230267   1.000000
   52        4.335464   1.000000
   53        4.405947   1.000000
   54        4.457952   1.000000
   55        4.477741   1.000000
   56        4.563341   1.000000
   57        4.590212   1.000000
   58        4.668599   1.000000
   59        4.706003   1.000000
   60        4.730315   1.000000
   61        4.804175   1.000000
   62        4.820414   1.000000
   63        4.894215   1.000000
   64        4.935785   1.000000
   65        4.988912   1.000000
   66        5.058122   1.000000
   67        5.068035   1.000000
   68        5.134611   1.000000
   69        5.186697   1.000000
   70        5.237458   1.000000
   71        5.242794   1.000000
   72        5.297216   1.000000
   73        5.359992   1.000000
   74        5.375417   1.000000
   75        5.476718   1.000000
   76        5.515898   1.000000
   77        5.610535   1.000000
   78        5.634744   1.000000
   79        5.693121   1.000000
   80        5.743883   1.000000
   81        5.783833   1.000000
   82        5.846295   1.000000
   83        5.886499   1.000000
   84        5.910050   1.000000
   85        5.974242   1.000000
   86        6.024713   1.000000
   87        6.072420   1.000000
   88        6.103546   1.000001
   89        6.144058   1.000002
   90        6.177187   1.000007
   91        6.248067   1.000063
   92        6.289907   1.000200
   93        6.333793   1.000605
   94        6.443877   1.005920
   95        6.508057   1.015661
   96        6.527429   1.019788
   97        6.568268   1.029065
   98        6.589740   1.033118
   99        6.649279   1.030466
  100        6.732863   0.939076
  101        6.774585   0.833021
  102        6.823755   0.657828
  103        6.840509   0.589558
  104        6.926499   0.241497
  105        7.062489  -0.025477
  106        7.091221  -0.034427
  107        7.179176  -0.023675
  108        7.246125  -0.010214
  109        7.320004  -0.002798
  110        7.444802  -0.000149
  111        7.536515  -0.000010
  112        7.595293  -0.000001
  113        7.819927  -0.000000
  114        7.994797  -0.000000
  115        8.091416  -0.000000
  116        8.202403  -0.000000
  117        8.311815  -0.000000
  118        8.354709  -0.000000
  119        8.417523  -0.000000
  120        8.472671  -0.000000
 
 -0.2000000E+00  0.2000000E+00  0.1006140E-15  0.1600000E-01
    1      -47.278556   1.000000
    2      -47.222913   1.000000
    3      -47.199269   1.000000
    4      -47.141455   1.000000
    5      -47.055389   1.000000
    6      -47.044625   1.000000
    7      -23.860982   1.000000
    8      -23.722746   1.000000
    9      -23.633564   1.000000
   10      -23.595031   1.000000
   11      -23.475772   1.000000
   12      -23.415473   1.000000
   13      -23.395312   1.000000
   14      -23.373537   1.000000
   15      -23.364119   1.000000
   16      -23.315441   1.000000
   17      -23.280778   1.000000
   18      -23.242959   1.000000
   19      -23.231978   1.000000
   20      -23.220948   1.000000
   21      -23.034831   1.000000
   22      -22.992356   1.000000
   23      -22.924127   1.000000
   24      -22.828874   1.000000
   25        0.041225   1.000000
   26        1.159590   1.000000
   27        1.489060   1.000000
   28        1.811129   1.000000
   29        2.159375   1.000000
   30        2.451061   1.000000
   31        2.552220   1.000000
   32        2.676414   1.000000
   33        2.782261   1.000000
   34        2.836327   1.000000
   35        2.857215   1.000000
   36        2.954637   1.000000
   37        3.022634   1.000000
   38        3.074195   1.000000
   39        3.133416   1.000000
   40        3.156750   1.000000
   41        3.233426   1.000000
   42        3.273329   1.000000
   43        3.358634   1.000000
   44        3.458989   1.000000
   45        3.468071   1.000000
   46        3.661343   1.000000
   47        3.709685   1.000000