 running on   32 total cores
 distrk:  each k-point on   32 cores,    1 groups
 distr:  one band on    4 cores,    8 groups
 using from now: INCAR     
 vasp.5.4.4.18Apr17-6-g9f103f2a35 (build Aug 09 2018 16:20:53) complex          
  
 POSCAR found :  5 types and      29 ions
 scaLAPACK will be used

 ----------------------------------------------------------------------------- 
|                                                                             |
|  ADVICE TO THIS USER RUNNING 'VASP/VAMP'   (HEAR YOUR MASTER'S VOICE ...):  |
|                                                                             |
|      You enforced a specific xc-type in the INCAR file,                     |
|      a different type was found on the POTCAR file                          |
|          I HOPE YOU KNOW, WHAT YOU ARE  DOING                               |
|                                                                             |
 ----------------------------------------------------------------------------- 

 LDA part: xc-table for Pade appr. of Perdew
 POSCAR found :  5 types and      29 ions
 POSCAR, INCAR and KPOINTS ok, starting setup
 FFT: planning ...
 WAVECAR not read
 entering main loop
       N       E                     dE             d eps       ncg     rms          rms(c)
DAV:   1     0.210650636726E+04    0.21065E+04   -0.94052E+04 15120   0.177E+03
DAV:   2     0.538282092742E+02   -0.20527E+04   -0.19941E+04 15120   0.531E+02
DAV:   3    -0.307554547858E+03   -0.36138E+03   -0.34404E+03 26440   0.176E+02
DAV:   4    -0.351668961785E+03   -0.44114E+02   -0.40793E+02 23296   0.583E+01
DAV:   5    -0.356637917903E+03   -0.49690E+01   -0.48344E+01 28840   0.216E+01    0.759E+01
DAV:   6    -0.345900604669E+03    0.10737E+02   -0.12405E+02 21184   0.300E+01    0.374E+01
DAV:   7    -0.359863346027E+03   -0.13963E+02   -0.42604E+02 21776   0.785E+01    0.264E+01
DAV:   8    -0.345602343455E+03    0.14261E+02   -0.80263E+01 22416   0.300E+01    0.169E+01
DAV:   9    -0.337923906556E+03    0.76784E+01   -0.14779E+01 21344   0.124E+01    0.114E+01
DAV:  10    -0.335378546088E+03    0.25454E+01   -0.70965E+00 21936   0.819E+00    0.722E+00
DAV:  11    -0.334624348673E+03    0.75420E+00   -0.58352E+00 22016   0.645E+00    0.306E+00
DAV:  12    -0.334640669590E+03   -0.16321E-01   -0.16120E+00 23024   0.381E+00    0.231E+00
DAV:  13    -0.334609402453E+03    0.31267E-01   -0.85685E-01 22832   0.275E+00    0.167E+00
DAV:  14    -0.334578402526E+03    0.31000E-01   -0.40762E-01 22592   0.195E+00    0.104E+00
DAV:  15    -0.334565823550E+03    0.12579E-01   -0.15274E-01 22592   0.119E+00    0.616E-01
DAV:  16    -0.334568050841E+03   -0.22273E-02   -0.49738E-02 22352   0.698E-01    0.572E-01
DAV:  17    -0.334565461930E+03    0.25889E-02   -0.28842E-02 21312   0.502E-01    0.366E-01
DAV:  18    -0.334563526778E+03    0.19352E-02   -0.15413E-02 21432   0.372E-01    0.165E-01
DAV:  19    -0.334563402128E+03    0.12465E-03   -0.41642E-03 21232   0.194E-01    0.803E-02
DAV:  20    -0.334563403138E+03   -0.10098E-05   -0.11995E-03 18672   0.116E-01    0.705E-02
DAV:  21    -0.334563338533E+03    0.64605E-04   -0.86690E-04 16768   0.951E-02
   1 F= -.33456334E+03 E0= -.33456006E+03  d E =-.334563E+03
 curvature:   0.00 expect dE= 0.000E+00 dE for cont linesearch  0.000E+00
 trial: gam= 0.00000 g(F)=  0.876E+00 g(S)=  0.316E+00 ort = 0.000E+00 (trialstep = 0.100E+01)
 search vector abs. value=  0.119E+01
 bond charge predicted
       N       E                     dE             d eps       ncg     rms          rms(c)
DAV:   1    -0.335736151909E+03   -0.11727E+01   -0.16172E+02 15592   0.507E+01    0.116E+01
DAV:   2    -0.336089569643E+03   -0.35342E+00   -0.20042E+01 22696   0.185E+01    0.768E+00
DAV:   3    -0.335604927017E+03    0.48464E+00   -0.10901E+01 21680   0.107E+01    0.619E+00
DAV:   4    -0.335339072280E+03    0.26585E+00   -0.68662E+00 23448   0.867E+00    0.405E+00
DAV:   5    -0.335108220513E+03    0.23085E+00   -0.27340E+00 22312   0.573E+00    0.230E+00
DAV:   6    -0.335003922429E+03    0.10430E+00   -0.76210E-01 23608   0.277E+00    0.123E+00
DAV:   7    -0.335010775553E+03   -0.68531E-02   -0.21837E-01 24792   0.133E+00    0.931E-01
DAV:   8    -0.335011500462E+03   -0.72491E-03   -0.75112E-02 22848   0.846E-01    0.664E-01
DAV:   9    -0.335015795105E+03   -0.42946E-02   -0.46322E-02 22256   0.617E-01    0.512E-01
DAV:  10    -0.335016919255E+03   -0.11242E-02   -0.28206E-02 23416   0.512E-01    0.308E-01
DAV:  11    -0.335017749543E+03   -0.83029E-03   -0.11136E-02 23672   0.302E-01    0.160E-01
DAV:  12    -0.335017931814E+03   -0.18227E-03   -0.43205E-03 22944   0.186E-01    0.990E-02
DAV:  13    -0.335017960734E+03   -0.28921E-04   -0.13841E-03 20688   0.109E-01    0.585E-02
DAV:  14    -0.335017944939E+03    0.15795E-04   -0.29159E-04 11736   0.683E-02
   2 F= -.33501794E+03 E0= -.33501554E+03  d E =-.454606E+00
 trial-energy change:   -0.454606  1 .order   -0.433167   -1.191891    0.325558
 step:   0.7991(harm=  0.7855)  dis= 0.04455  next Energy=  -335.050478 (dE=-0.487E+00)
 bond charge predicted
       N       E                     dE             d eps       ncg     rms          rms(c)
DAV:   1    -0.335075070786E+03   -0.57110E-01   -0.65802E+00 15728   0.103E+01    0.244E+00
DAV:   2    -0.335089931848E+03   -0.14861E-01   -0.79181E-01 23248   0.375E+00    0.162E+00
DAV:   3    -0.335087069673E+03    0.28622E-02   -0.57660E-01 21800   0.258E+00    0.137E+00
DAV:   4    -0.335063625163E+03    0.23445E-01   -0.24806E-01 22808   0.161E+00    0.767E-01
DAV:   5    -0.335053354730E+03    0.10270E-01   -0.95302E-02 22256   0.106E+00    0.443E-01
DAV:   6    -0.335050997527E+03    0.23572E-02   -0.39696E-02 22944   0.620E-01    0.282E-01
DAV:   7    -0.335050596445E+03    0.40108E-03   -0.11273E-02 23488   0.316E-01    0.176E-01
DAV:   8    -0.335050580024E+03    0.16421E-04   -0.32710E-03 20256   0.179E-01    0.130E-01
DAV:   9    -0.335050656109E+03   -0.76085E-04   -0.16561E-03 19368   0.123E-01    0.969E-02
DAV:  10    -0.335050725971E+03   -0.69862E-04   -0.89832E-04 17952   0.996E-02
   3 F= -.33505073E+03 E0= -.33504822E+03  d E =-.487387E+00
 curvature:  -0.39 expect dE=-0.434E+00 dE for cont linesearch -0.277E-05
 trial: gam= 0.93261 g(F)=  0.294E+00 g(S)=  0.815E+00 ort =-0.291E-02 (trialstep = 0.535E+00)
 search vector abs. value=  0.214E+01
 bond charge predicted
       N       E                     dE             d eps       ncg     rms          rms(c)
DAV:   1    -0.335206698467E+03   -0.15604E+00   -0.80821E+01 15120   0.322E+01    0.477E+00
DAV:   2    -0.335524613898E+03   -0.31792E+00   -0.66947E+00 20312   0.998E+00    0.317E+00
DAV:   3    -0.335543716659E+03   -0.19103E-01   -0.27405E+00 22864   0.572E+00    0.263E+00
DAV:   4    -0.335424913689E+03    0.11880E+00   -0.65298E-01 22344   0.278E+00    0.136E+00
DAV:   5    -0.335415874641E+03    0.90390E-02   -0.31680E-01 23168   0.183E+00    0.108E+00
DAV:   6    -0.335403906662E+03    0.11968E-01   -0.18595E-01 23392   0.140E+00    0.634E-01
DAV:   7    -0.335399835352E+03    0.40713E-02   -0.49198E-02 25664   0.805E-01    0.425E-01
DAV:   8    -0.335399149092E+03    0.68626E-03   -0.23695E-02 22880   0.447E-01    0.330E-01
DAV:   9    -0.335399052330E+03    0.96762E-04   -0.71485E-03 22216   0.236E-01    0.242E-01
DAV:  10    -0.335399333022E+03   -0.28069E-03   -0.21792E-03 20776   0.160E-01    0.157E-01
DAV:  11    -0.335399667940E+03   -0.33492E-03   -0.25005E-03 22840   0.162E-01    0.988E-02
DAV:  12    -0.335399538869E+03    0.12907E-03   -0.19624E-03 20040   0.129E-01    0.528E-02
DAV:  13    -0.335399494104E+03    0.44765E-04   -0.40340E-04 13384   0.683E-02
   4 F= -.33539949E+03 E0= -.33539672E+03  d E =-.348768E+00
 trial-energy change:   -0.348768  1 .order   -0.354040   -0.591241   -0.116838
 step:   0.6784(harm=  0.6663)  dis= 0.05753  next Energy=  -335.415109 (dE=-0.364E+00)
 bond charge predicted
       N       E                     dE             d eps       ncg     rms          rms(c)
DAV:   1    -0.335404405418E+03   -0.48665E-02   -0.58320E+00 15528   0.855E+00    0.121E+00
DAV:   2    -0.335425320929E+03   -0.20916E-01   -0.45190E-01 20824   0.257E+00    0.859E-01
DAV:   3    -0.335423633084E+03    0.16878E-02   -0.17984E-01 22888   0.141E+00    0.661E-01
DAV:   4    -0.335416568582E+03    0.70645E-02   -0.44994E-02 21776   0.735E-01    0.338E-01
DAV:   5    -0.335416341726E+03    0.22686E-03   -0.21376E-02 23152   0.487E-01    0.287E-01
DAV:   6    -0.335415410789E+03    0.93094E-03   -0.13157E-02 23264   0.362E-01    0.174E-01
DAV:   7    -0.335415123463E+03    0.28733E-03   -0.33770E-03 22528   0.204E-01    0.115E-01
DAV:   8    -0.335415070086E+03    0.53377E-04   -0.15266E-03 19416   0.114E-01    0.859E-02
DAV:   9    -0.335415061980E+03    0.81058E-05   -0.38387E-04 13080   0.669E-02
   5 F= -.33541506E+03 E0= -.33541225E+03  d E =-.364336E+00
 curvature:  -0.64 expect dE=-0.558E-01 dE for cont linesearch -0.919E-06
 trial: gam= 0.01309 g(F)=  0.823E-01 g(S)=  0.511E-02 ort = 0.175E-02 (trialstep = 0.563E+00)
 search vector abs. value=  0.878E-01
 bond charge predicted
       N       E                     dE             d eps       ncg     rms          rms(c)
DAV:   1    -0.335443027255E+03   -0.27957E-01   -0.33816E+00 15312   0.633E+00    0.794E-01
DAV:   2    -0.335457250620E+03   -0.14223E-01   -0.22472E-01 21784   0.185E+00    0.543E-01
DAV:   3    -0.335457608896E+03   -0.35828E-03   -0.65601E-02 22496   0.884E-01    0.479E-01
DAV:   4    -0.335454226607E+03    0.33823E-02   -0.19384E-02 22672   0.485E-01    0.211E-01
DAV:   5    -0.335454701334E+03   -0.47473E-03   -0.10743E-02 22624   0.339E-01    0.219E-01
DAV:   6    -0.335453928041E+03    0.77329E-03   -0.77387E-03 22456   0.258E-01    0.947E-02
DAV:   7    -0.335453851717E+03    0.76324E-04   -0.14421E-03 19528   0.117E-01    0.684E-02
DAV:   8    -0.335453818005E+03    0.33712E-04   -0.40378E-04 13456   0.696E-02
   6 F= -.33545382E+03 E0= -.33545084E+03  d E =-.387560E-01
 trial-energy change:   -0.038756  1 .order   -0.038922   -0.049236   -0.028609
 step:   1.3448(harm=  1.3448)  dis= 0.02052  next Energy=  -335.473825 (dE=-0.588E-01)
 bond charge predicted
       N       E                     dE             d eps       ncg     rms          rms(c)
DAV:   1    -0.335452711152E+03    0.11406E-02   -0.65049E+00 15288   0.879E+00    0.111E+00
DAV:   2    -0.335480602388E+03   -0.27891E-01   -0.43771E-01 21856   0.257E+00    0.758E-01
DAV:   3    -0.335481465629E+03   -0.86324E-03   -0.12839E-01 22568   0.123E+00    0.673E-01
DAV:   4    -0.335474775052E+03    0.66906E-02   -0.38022E-02 22616   0.670E-01    0.295E-01
DAV:   5    -0.335475681320E+03   -0.90627E-03   -0.20157E-02 22616   0.469E-01    0.303E-01
DAV:   6    -0.335474228168E+03    0.14532E-02   -0.15272E-02 23440   0.364E-01    0.137E-01
DAV:   7    -0.335474038890E+03    0.18928E-03   -0.30028E-03 20664   0.168E-01    0.954E-02
DAV:   8    -0.335473982648E+03    0.56242E-04   -0.90183E-04 17504   0.918E-02
   7 F= -.33547398E+03 E0= -.33547083E+03  d E =-.589207E-01
 curvature:  -0.68 expect dE=-0.574E-01 dE for cont linesearch -0.144E-04
 trial: gam= 0.95828 g(F)=  0.208E-01 g(S)=  0.643E-01 ort = 0.137E-02 (trialstep = 0.375E+00)
 search vector abs. value=  0.168E+00
 bond charge predicted
       N       E                     dE             d eps       ncg     rms          rms(c)
DAV:   1    -0.335508588227E+03   -0.34549E-01   -0.26510E+00 15272   0.669E+00    0.159E+00
DAV:   2    -0.335510645422E+03   -0.20572E-02   -0.34740E-01 22664   0.242E+00    0.937E-01
DAV:   3    -0.335510761168E+03   -0.11575E-03   -0.23031E-01 21960   0.158E+00    0.886E-01
DAV:   4    -0.335499786365E+03    0.10975E-01   -0.10952E-01 22280   0.108E+00    0.472E-01
DAV:   5    -0.335496384904E+03    0.34015E-02   -0.39966E-02 22408   0.650E-01    0.293E-01
DAV:   6    -0.335495121680E+03    0.12632E-02   -0.13813E-02 23112   0.368E-01    0.149E-01
DAV:   7    -0.335495171230E+03   -0.49550E-04   -0.36539E-03 21216   0.174E-01    0.106E-01
DAV:   8    -0.335495164216E+03    0.70139E-05   -0.11527E-03 18792   0.112E-01    0.791E-02
DAV:   9    -0.335495198211E+03   -0.33995E-04   -0.57253E-04 15144   0.794E-02
   8 F= -.33549520E+03 E0= -.33549203E+03  d E =-.212156E-01
 trial-energy change:   -0.021216  1 .order   -0.021609   -0.032420   -0.010798
 step:   0.5629(harm=  0.5629)  dis= 0.01484  next Energy=  -335.498288 (dE=-0.243E-01)
 bond charge predicted
       N       E                     dE             d eps       ncg     rms          rms(c)
DAV:   1    -0.335500387888E+03   -0.52237E-02   -0.66168E-01 15296   0.335E+00    0.786E-01
DAV:   2    -0.335500714491E+03   -0.32660E-03   -0.84188E-02 22536   0.122E+00    0.461E-01
DAV:   3    -0.335500816751E+03   -0.10226E-03   -0.57583E-02 21704   0.794E-01    0.432E-01
DAV:   4    -0.335498132817E+03    0.26839E-02   -0.27200E-02 22504   0.536E-01    0.228E-01
DAV:   5    -0.335497328375E+03    0.80444E-03   -0.94925E-03 22368   0.319E-01    0.145E-01
DAV:   6    -0.335497066290E+03    0.26209E-03   -0.31994E-03 21104   0.176E-01    0.808E-02
DAV:   7    -0.335497097098E+03   -0.30809E-04   -0.82838E-04 17848   0.857E-02
   9 F= -.33549710E+03 E0= -.33549395E+03  d E =-.231145E-01
 curvature:  -0.55 expect dE=-0.176E-01 dE for cont linesearch -0.478E-04
 trial: gam= 0.42284 g(F)=  0.235E-01 g(S)=  0.857E-02 ort =-0.383E-02 (trialstep = 0.413E+00)
 search vector abs. value=  0.589E-01
 bond charge predicted
       N       E                     dE             d eps       ncg     rms          rms(c)
DAV:   1    -0.335505961032E+03   -0.88947E-02   -0.86346E-01 15416   0.304E+00    0.254E-01
DAV:   2    -0.335509870878E+03   -0.39098E-02   -0.51045E-02 24912   0.101E+00    0.298E-01
DAV:   3    -0.335508786267E+03    0.10846E-02   -0.13179E-02 22248   0.376E-01    0.173E-01
DAV:   4    -0.335508588009E+03    0.19826E-03   -0.25603E-03 20864   0.163E-01    0.120E-01
DAV:   5    -0.335508535399E+03    0.52610E-04   -0.13376E-03 18528   0.118E-01    0.998E-02
DAV:   6    -0.335508467167E+03    0.68232E-04   -0.11163E-03 17856   0.116E-01    0.694E-02
DAV:   7    -0.335508407478E+03    0.59689E-04   -0.64227E-04 15024   0.891E-02
  10 F= -.33550841E+03 E0= -.33550526E+03  d E =-.113104E-01
 ZBRENT: can't locate minimum, use default step
 trial-energy change:   -0.011310  1 .order   -0.011250   -0.012563   -0.009937
 step:   1.6516(harm=  1.9752)  dis= 0.03868  next Energy=  -335.527147 (dE=-0.300E-01)
 bond charge predicted
       N       E                     dE             d eps       ncg     rms          rms(c)
DAV:   1    -0.335502766977E+03    0.57002E-02   -0.77607E+00 15312   0.912E+00    0.796E-01
DAV:   2    -0.335537929763E+03   -0.35163E-01   -0.45649E-01 24888   0.302E+00    0.862E-01
DAV:   3    -0.335530433559E+03    0.74962E-02   -0.12030E-01 22160   0.111E+00    0.518E-01
DAV:   4    -0.335527995644E+03    0.24379E-02   -0.26019E-02 23824   0.512E-01    0.340E-01
DAV:   5    -0.335527279772E+03    0.71587E-03   -0.10861E-02 21704   0.332E-01    0.272E-01
DAV:   6    -0.335526698040E+03    0.58173E-03   -0.86171E-03 22304   0.302E-01    0.193E-01
DAV:   7    -0.335526197244E+03    0.50080E-03   -0.45758E-03 21984   0.212E-01    0.968E-02
DAV:   8    -0.335526065471E+03    0.13177E-03   -0.15699E-03 19144   0.118E-01    0.496E-02
DAV:   9    -0.335526039221E+03    0.26250E-04   -0.31652E-04 12600   0.664E-02
  11 F= -.33552604E+03 E0= -.33552289E+03  d E =-.289421E-01
 curvature:  -1.83 expect dE=-0.216E-01 dE for cont linesearch -0.536E-03
 trial: gam= 0.04765 g(F)=  0.780E-02 g(S)=  0.401E-02 ort = 0.416E-02 (trialstep = 0.661E+00)
 search vector abs. value=  0.123E-01
 bond charge predicted
       N       E                     dE             d eps       ncg     rms          rms(c)
DAV:   1    -0.335535243794E+03   -0.91783E-02   -0.62049E-01 15464   0.325E+00    0.819E-01
DAV:   2    -0.335535813419E+03   -0.56963E-03   -0.87132E-02 23400   0.122E+00    0.516E-01
DAV:   3    -0.335534124232E+03    0.16892E-02   -0.64037E-02 22128   0.839E-01    0.393E-01
DAV:   4    -0.335531283324E+03    0.28409E-02   -0.19323E-02 23216   0.474E-01    0.146E-01
DAV:   5    -0.335530933114E+03    0.35021E-03   -0.44918E-03 22856   0.250E-01    0.113E-01
DAV:   6    -0.335530892788E+03    0.40325E-04   -0.30177E-03 20696   0.158E-01    0.857E-02
DAV:   7    -0.335530851081E+03    0.41707E-04   -0.95521E-04 18456   0.970E-02
  12 F= -.33553085E+03 E0= -.33552766E+03  d E =-.481186E-02
 trial-energy change:   -0.004812  1 .order   -0.004961   -0.007939   -0.001983
 step:   0.8807(harm=  0.8807)  dis= 0.00823  next Energy=  -335.531331 (dE=-0.529E-02)
 bond charge predicted
       N       E                     dE             d eps       ncg     rms          rms(c)
DAV:   1    -0.335531483217E+03   -0.59043E-03   -0.69334E-02 16016   0.109E+00    0.260E-01
DAV:   2    -0.335531525458E+03   -0.42241E-04   -0.85815E-03 21968   0.401E-01    0.158E-01
DAV:   3    -0.335531407269E+03    0.11819E-03   -0.61103E-03 20880   0.265E-01    0.125E-01
DAV:   4    -0.335531148796E+03    0.25847E-03   -0.22118E-03 19840   0.165E-01    0.666E-02
DAV:   5    -0.335531095418E+03    0.53377E-04   -0.81998E-04 16008   0.997E-02
  13 F= -.33553110E+03 E0= -.33552791E+03  d E =-.505620E-02
 curvature:  -0.45 expect dE=-0.591E-02 dE for cont linesearch -0.220E-06
 trial: gam= 1.11697 g(F)=  0.381E-02 g(S)=  0.925E-02 ort = 0.775E-04 (trialstep = 0.304E+00)
 search vector abs. value=  0.286E-01
 bond charge predicted
       N       E                     dE             d eps       ncg     rms          rms(c)
DAV:   1    -0.335534065885E+03   -0.29171E-02   -0.26072E-01 15120   0.174E+00    0.232E-01
DAV:   2    -0.335535059397E+03   -0.99351E-03   -0.19113E-02 23560   0.535E-01    0.187E-01
DAV:   3    -0.335535050895E+03    0.85024E-05   -0.63207E-03 20904   0.259E-01    0.164E-01
DAV:   4    -0.335534702374E+03    0.34852E-03   -0.23658E-03 20072   0.163E-01    0.846E-02
DAV:   5    -0.335534669470E+03    0.32905E-04   -0.10898E-03 17256   0.116E-01    0.648E-02
DAV:   6    -0.335534618847E+03    0.50623E-04   -0.81771E-04 16176   0.975E-02
  14 F= -.33553462E+03 E0= -.33553141E+03  d E =-.352343E-02
 trial-energy change:   -0.003523  1 .order   -0.003485   -0.003995   -0.002975
 step:   1.1899(harm=  1.1899)  dis= 0.01985  next Energy=  -335.538919 (dE=-0.782E-02)
 bond charge predicted
       N       E                     dE             d eps       ncg     rms          rms(c)
DAV:   1    -0.335533745102E+03    0.92437E-03   -0.22093E+00 15120   0.505E+00    0.656E-01
DAV:   2    -0.335542698112E+03   -0.89530E-02   -0.16163E-01 23136   0.158E+00    0.545E-01
DAV:   3    -0.335541765487E+03    0.93262E-03   -0.58588E-02 22000   0.767E-01    0.443E-01
DAV:   4    -0.335538947747E+03    0.28177E-02   -0.18095E-02 22840   0.454E-01    0.212E-01
DAV:   5    -0.335538704511E+03    0.24324E-03   -0.87581E-03 22552   0.311E-01    0.163E-01
DAV:   6    -0.335538385426E+03    0.31908E-03   -0.55756E-03 22024   0.218E-01    0.912E-02
DAV:   7    -0.335538267063E+03    0.11836E-03   -0.13360E-03 19240   0.117E-01    0.449E-02
DAV:   8    -0.335538265161E+03    0.19018E-05   -0.17619E-04 10376   0.532E-02
  15 F= -.33553827E+03 E0= -.33553505E+03  d E =-.716974E-02
 curvature:  -1.30 expect dE=-0.723E-02 dE for cont linesearch -0.691E-04
 trial: gam= 0.50158 g(F)=  0.512E-02 g(S)=  0.458E-03 ort =-0.124E-02 (trialstep = 0.481E+00)
 search vector abs. value=  0.115E-01
 bond charge predicted
       N       E                     dE             d eps       ncg     rms          rms(c)
DAV:   1    -0.335539898482E+03   -0.16314E-02   -0.25016E-01 16424   0.165E+00    0.134E-01
DAV:   2    -0.335540897102E+03   -0.99862E-03   -0.13707E-02 24184   0.517E-01    0.154E-01
DAV:   3    -0.335540648436E+03    0.24867E-03   -0.42110E-03 22384   0.209E-01    0.944E-02
DAV:   4    -0.335540547802E+03    0.10063E-03   -0.78525E-04 16304   0.964E-02    0.594E-02
DAV:   5    -0.335540514715E+03    0.33087E-04   -0.35536E-04 13040   0.761E-02
  16 F= -.33554051E+03 E0= -.33553727E+03  d E =-.224955E-02
 ZBRENT: can't locate minimum, use default step
 trial-energy change:   -0.002250  1 .order   -0.002293   -0.002384   -0.002202
 step:   1.9241(harm=  6.3031)  dis= 0.02160  next Energy=  -335.553883 (dE=-0.156E-01)
 bond charge predicted
       N       E                     dE             d eps       ncg     rms          rms(c)
DAV:   1    -0.335539244427E+03    0.13034E-02   -0.22396E+00 16240   0.495E+00    0.392E-01
DAV:   2    -0.335548535393E+03   -0.92910E-02   -0.12384E-01 24192   0.155E+00    0.451E-01
DAV:   3    -0.335546315221E+03    0.22202E-02   -0.35731E-02 23168   0.615E-01    0.271E-01
DAV:   4    -0.335545524693E+03    0.79053E-03   -0.71947E-03 22672   0.277E-01    0.169E-01
DAV:   5    -0.335545214380E+03    0.31031E-03   -0.33258E-03 20896   0.197E-01    0.122E-01
DAV:   6    -0.335545066708E+03    0.14767E-03   -0.23532E-03 20296   0.154E-01    0.816E-02
DAV:   7    -0.335544967465E+03    0.99243E-04   -0.99431E-04 17112   0.112E-01
  17 F= -.33554497E+03 E0= -.33554167E+03  d E =-.670230E-02
 curvature:  -3.19 expect dE=-0.921E-02 dE for cont linesearch -0.989E-03
 trial: gam= 0.00871 g(F)=  0.258E-02 g(S)=  0.309E-03 ort = 0.189E-02 (trialstep = 0.770E+00)
 search vector abs. value=  0.292E-02
 bond charge predicted
       N       E                     dE             d eps       ncg     rms          rms(c)
DAV:   1    -0.335546046831E+03   -0.98012E-03   -0.22394E-01 16128   0.168E+00    0.191E-01
DAV:   2    -0.335546875905E+03   -0.82907E-03   -0.14107E-02 22456   0.462E-01    0.143E-01
DAV:   3    -0.335546906291E+03   -0.30386E-04   -0.42258E-03 21720   0.207E-01    0.125E-01
DAV:   4    -0.335546692975E+03    0.21332E-03   -0.16295E-03 19584   0.133E-01    0.693E-02
DAV:   5    -0.335546685976E+03    0.69993E-05   -0.78381E-04 16016   0.958E-02
  18 F= -.33554669E+03 E0= -.33554336E+03  d E =-.171851E-02
 trial-energy change:   -0.001719  1 .order   -0.001768   -0.002236   -0.001300
 step:   1.8390(harm=  1.8390)  dis= 0.00558  next Energy=  -335.547639 (dE=-0.267E-02)
 bond charge predicted
       N       E                     dE             d eps       ncg     rms          rms(c)
DAV:   1    -0.335546209851E+03    0.48312E-03   -0.43061E-01 16128   0.233E+00    0.267E-01
DAV:   2    -0.335547824598E+03   -0.16147E-02   -0.27001E-02 22232   0.647E-01    0.202E-01
DAV:   3    -0.335547779712E+03    0.44886E-04   -0.84867E-03 22864   0.298E-01    0.164E-01
DAV:   4    -0.335547377973E+03    0.40174E-03   -0.24168E-03 20200   0.167E-01    0.727E-02
DAV:   5    -0.335547417150E+03   -0.39177E-04   -0.11293E-03 18056   0.113E-01    0.740E-02
DAV:   6    -0.335547333633E+03    0.83517E-04   -0.82998E-04 16208   0.977E-02
  19 F= -.33554733E+03 E0= -.33554403E+03  d E =-.236617E-02
 curvature:  -0.93 expect dE=-0.400E-02 dE for cont linesearch -0.137E-04
 trial: gam= 1.57416 g(F)=  0.111E-02 g(S)=  0.322E-02 ort =-0.208E-03 (trialstep = 0.264E+00)
 search vector abs. value=  0.109E-01
 bond charge predicted
       N       E                     dE             d eps       ncg     rms          rms(c)
DAV:   1    -0.335548090571E+03   -0.67342E-03   -0.95466E-02 15192   0.120E+00    0.234E-01
DAV:   2    -0.335548343338E+03   -0.25277E-03   -0.10487E-02 21768   0.395E-01    0.135E-01
DAV:   3    -0.335548340842E+03    0.24966E-05   -0.42968E-03 21048   0.232E-01    0.118E-01
DAV:   4    -0.335548114826E+03    0.22602E-03   -0.18156E-03 19432   0.145E-01    0.523E-02
DAV:   5    -0.335548058850E+03    0.55975E-04   -0.33059E-04 12304   0.774E-02
  20 F= -.33554806E+03 E0= -.33554476E+03  d E =-.725217E-03
 trial-energy change:   -0.000725  1 .order   -0.000772   -0.001052   -0.000493
 step:   0.4955(harm=  0.4955)  dis= 0.00290  next Energy=  -335.548323 (dE=-0.989E-03)
 writing wavefunctions
VASP is done!
