<?xml version="1.0" encoding="ISO-8859-1"?>
<modeling>
 <generator>
  <i name="program" type="string">vasp </i>
  <i name="version" type="string">5.4.4.18Apr17-6-g9f103f2a35  </i>
  <i name="subversion" type="string">(build Aug 09 2018 16:20:53) complex            parallel </i>
  <i name="platform" type="string">LinuxIFC </i>
  <i name="date" type="string">2020 04 12 </i>
  <i name="time" type="string">17:40:38 </i>
 </generator>
 <incar>
  <i type="string" name="SYSTEM"> SQS with 1 vacancy for VFE and VRV</i>
  <i type="string" name="PREC">normal</i>
  <i type="int" name="IALGO">    38</i>
  <i type="int" name="ICHARG">     2</i>
  <i type="int" name="IBRION">     2</i>
  <i type="int" name="NSW">    20</i>
  <i type="int" name="ISIF">     3</i>
  <i type="int" name="ISYM">     0</i>
  <i name="ENCUT">    600.00000000</i>
  <i type="string" name="LREAL"> Auto</i>
  <i type="int" name="ISMEAR">     1</i>
  <i name="SIGMA">      0.20000000</i>
  <v type="int" name="KPOINT_BSE">    -1     0     0     0</v>
  <i type="string" name="GGA"> PS</i>
 </incar>
 <structure name="primitive_cell" >
  <crystal>
   <varray name="basis" >
    <v>      -3.19000000      -3.19000000      -3.19000000 </v>
    <v>       1.59500000       1.59500000      -7.97500000 </v>
    <v>       7.97500000      -7.97500000      -1.59500000 </v>
   </varray>
   <i name="volume">    486.92638500 </i>
   <varray name="rec_basis" >
    <v>      -0.13584117      -0.12539185      -0.05224660 </v>
    <v>       0.04179728       0.06269592      -0.10449321 </v>
    <v>       0.06269592      -0.06269592       0.00000000 </v>
   </varray>
  </crystal>
  <varray name="positions" >
   <v>      -0.03333333      -0.06666667       0.40000000 </v>
   <v>       0.30000000      -0.40000000       0.40000000 </v>
   <v>      -0.10000000      -0.20000000       0.20000000 </v>
   <v>       0.06666667       0.13333333       0.20000000 </v>
   <v>       0.46666667      -0.06666667       0.40000000 </v>
   <v>      -0.13333333      -0.26666667      -0.40000000 </v>
   <v>       0.03333333       0.06666667      -0.40000000 </v>
   <v>      -0.36666667       0.26666667       0.40000000 </v>
   <v>       0.40000000      -0.20000000       0.20000000 </v>
   <v>      -0.20000000      -0.40000000       0.40000000 </v>
   <v>      -0.43333333       0.13333333       0.20000000 </v>
   <v>       0.36666667      -0.26666667      -0.40000000 </v>
   <v>       0.13333333       0.26666667       0.40000000 </v>
   <v>      -0.46666667       0.06666667      -0.40000000 </v>
   <v>       0.23333333       0.46666667       0.20000000 </v>
   <v>       0.20000000       0.40000000      -0.40000000 </v>
   <v>       0.00000000       0.00000000       0.00000000 </v>
   <v>      -0.06666667      -0.13333333      -0.20000000 </v>
   <v>      -0.30000000       0.40000000      -0.40000000 </v>
   <v>      -0.26666667       0.46666667       0.20000000 </v>
   <v>       0.33333333      -0.33333333       0.00000000 </v>
   <v>       0.43333333      -0.13333333      -0.20000000 </v>
   <v>      -0.50000000       0.00000000       0.00000000 </v>
   <v>       0.26666667      -0.46666667      -0.20000000 </v>
   <v>      -0.33333333       0.33333333       0.00000000 </v>
   <v>      -0.40000000       0.20000000      -0.20000000 </v>
   <v>      -0.16666667      -0.33333333       0.00000000 </v>
   <v>      -0.23333333      -0.46666667      -0.20000000 </v>
   <v>       0.10000000       0.20000000      -0.20000000 </v>
  </varray>
 </structure>
 <varray name="primitive_index" >
  <v type="int" >        1 </v>
  <v type="int" >       18 </v>
  <v type="int" >        7 </v>
  <v type="int" >       23 </v>
  <v type="int" >       20 </v>
  <v type="int" >       19 </v>
  <v type="int" >        6 </v>
  <v type="int" >        2 </v>
  <v type="int" >       16 </v>
  <v type="int" >        8 </v>
  <v type="int" >       15 </v>
  <v type="int" >       11 </v>
  <v type="int" >       12 </v>
  <v type="int" >       27 </v>
  <v type="int" >       29 </v>
  <v type="int" >       22 </v>
  <v type="int" >        4 </v>
  <v type="int" >       14 </v>
  <v type="int" >       25 </v>
  <v type="int" >        9 </v>
  <v type="int" >       28 </v>
  <v type="int" >       17 </v>
  <v type="int" >        3 </v>
  <v type="int" >       21 </v>
  <v type="int" >       10 </v>
  <v type="int" >       26 </v>
  <v type="int" >       13 </v>
  <v type="int" >       24 </v>
  <v type="int" >        5 </v>
 </varray>
 <kpoints>
  <generation param="Gamma">
   <v type="int" name="divisions">       5        5        5 </v>
   <v name="usershift">      0.00000000       0.00000000       0.00000000 </v>
   <v name="genvec1">      0.20000000      -0.00000000      -0.00000000 </v>
   <v name="genvec2">      0.00000000       0.20000000       0.00000000 </v>
   <v name="genvec3">      0.00000000       0.00000000       0.20000000 </v>
   <v name="shift">      0.00000000       0.00000000       0.00000000 </v>
  </generation>
  <varray name="kpointlist" >
   <v>       0.00000000       0.00000000       0.00000000 </v>
   <v>       0.20000000      -0.00000000       0.00000000 </v>
   <v>       0.40000000      -0.00000000       0.00000000 </v>
   <v>       0.00000000       0.20000000       0.00000000 </v>
   <v>       0.20000000       0.20000000      -0.00000000 </v>
   <v>       0.40000000       0.20000000      -0.00000000 </v>
   <v>      -0.40000000       0.20000000      -0.00000000 </v>
   <v>      -0.20000000       0.20000000       0.00000000 </v>
   <v>       0.00000000       0.40000000       0.00000000 </v>
   <v>       0.20000000       0.40000000       0.00000000 </v>
   <v>       0.40000000       0.40000000      -0.00000000 </v>
   <v>      -0.40000000       0.40000000       0.00000000 </v>
   <v>      -0.20000000       0.40000000       0.00000000 </v>
   <v>       0.00000000       0.00000000       0.20000000 </v>
   <v>       0.20000000      -0.00000000       0.20000000 </v>
   <v>       0.40000000       0.00000000       0.20000000 </v>
   <v>      -0.40000000       0.00000000       0.20000000 </v>
   <v>      -0.20000000       0.00000000       0.20000000 </v>
   <v>       0.00000000       0.20000000       0.20000000 </v>
   <v>       0.20000000       0.20000000       0.20000000 </v>
   <v>       0.40000000       0.20000000       0.20000000 </v>
   <v>      -0.40000000       0.20000000       0.20000000 </v>
   <v>      -0.20000000       0.20000000       0.20000000 </v>
   <v>       0.00000000       0.40000000       0.20000000 </v>
   <v>       0.20000000       0.40000000       0.20000000 </v>
   <v>       0.40000000       0.40000000       0.20000000 </v>
   <v>      -0.40000000       0.40000000       0.20000000 </v>
   <v>      -0.20000000       0.40000000       0.20000000 </v>
   <v>       0.00000000      -0.40000000       0.20000000 </v>
   <v>       0.20000000      -0.40000000       0.20000000 </v>
   <v>       0.40000000      -0.40000000       0.20000000 </v>
   <v>      -0.40000000      -0.40000000       0.20000000 </v>
   <v>      -0.20000000      -0.40000000       0.20000000 </v>
   <v>       0.00000000      -0.20000000       0.20000000 </v>
   <v>       0.20000000      -0.20000000       0.20000000 </v>
   <v>       0.40000000      -0.20000000       0.20000000 </v>
   <v>      -0.40000000      -0.20000000       0.20000000 </v>
   <v>      -0.20000000      -0.20000000       0.20000000 </v>
   <v>       0.00000000       0.00000000       0.40000000 </v>
   <v>       0.20000000      -0.00000000       0.40000000 </v>
   <v>       0.40000000      -0.00000000       0.40000000 </v>
   <v>      -0.40000000       0.00000000       0.40000000 </v>
   <v>      -0.20000000       0.00000000       0.40000000 </v>
   <v>      -0.00000000       0.20000000       0.40000000 </v>
   <v>       0.20000000       0.20000000       0.40000000 </v>
   <v>       0.40000000       0.20000000       0.40000000 </v>
   <v>      -0.40000000       0.20000000       0.40000000 </v>
   <v>      -0.20000000       0.20000000       0.40000000 </v>
   <v>       0.00000000       0.40000000       0.40000000 </v>
   <v>       0.20000000       0.40000000       0.40000000 </v>
   <v>       0.40000000       0.40000000       0.40000000 </v>
   <v>      -0.40000000       0.40000000       0.40000000 </v>
   <v>      -0.20000000       0.40000000       0.40000000 </v>
   <v>       0.00000000      -0.40000000       0.40000000 </v>
   <v>       0.20000000      -0.40000000       0.40000000 </v>
   <v>       0.40000000      -0.40000000       0.40000000 </v>
   <v>      -0.40000000      -0.40000000       0.40000000 </v>
   <v>      -0.20000000      -0.40000000       0.40000000 </v>
   <v>       0.00000000      -0.20000000       0.40000000 </v>
   <v>       0.20000000      -0.20000000       0.40000000 </v>
   <v>       0.40000000      -0.20000000       0.40000000 </v>
   <v>      -0.40000000      -0.20000000       0.40000000 </v>
   <v>      -0.20000000      -0.20000000       0.40000000 </v>
  </varray>
  <varray name="weights" >
   <v>       0.00800000 </v>
   <v>       0.01600000 </v>
   <v>       0.01600000 </v>
   <v>       0.01600000 </v>
   <v>       0.01600000 </v>
   <v>       0.01600000 </v>
   <v>       0.01600000 </v>
   <v>       0.01600000 </v>
   <v>       0.01600000 </v>
   <v>       0.01600000 </v>
   <v>       0.01600000 </v>
   <v>       0.01600000 </v>
   <v>       0.01600000 </v>
   <v>       0.01600000 </v>
   <v>       0.01600000 </v>
   <v>       0.01600000 </v>
   <v>       0.01600000 </v>
   <v>       0.01600000 </v>
   <v>       0.01600000 </v>
   <v>       0.01600000 </v>
   <v>       0.01600000 </v>
   <v>       0.01600000 </v>
   <v>       0.01600000 </v>
   <v>       0.01600000 </v>
   <v>       0.01600000 </v>
   <v>       0.01600000 </v>
   <v>       0.01600000 </v>
   <v>       0.01600000 </v>
   <v>       0.01600000 </v>
   <v>       0.01600000 </v>
   <v>       0.01600000 </v>
   <v>       0.01600000 </v>
   <v>       0.01600000 </v>
   <v>       0.01600000 </v>
   <v>       0.01600000 </v>
   <v>       0.01600000 </v>
   <v>       0.01600000 </v>
   <v>       0.01600000 </v>
   <v>       0.01600000 </v>
   <v>       0.01600000 </v>
   <v>       0.01600000 </v>
   <v>       0.01600000 </v>
   <v>       0.01600000 </v>
   <v>       0.01600000 </v>
   <v>       0.01600000 </v>
   <v>       0.01600000 </v>
   <v>       0.01600000 </v>
   <v>       0.01600000 </v>
   <v>       0.01600000 </v>
   <v>       0.01600000 </v>
   <v>       0.01600000 </v>
   <v>       0.01600000 </v>
   <v>       0.01600000 </v>
   <v>       0.01600000 </v>
   <v>       0.01600000 </v>
   <v>       0.01600000 </v>
   <v>       0.01600000 </v>
   <v>       0.01600000 </v>
   <v>       0.01600000 </v>
   <v>       0.01600000 </v>
   <v>       0.01600000 </v>
   <v>       0.01600000 </v>
   <v>       0.01600000 </v>
  </varray>
 </kpoints>
 <parameters>
  <separator name="general" >
   <i type="string" name="SYSTEM">SQS with 1 vacancy for VFE and VRV</i>
   <i type="logical" name="LCOMPAT"> F  </i>
  </separator>
  <separator name="electronic" >
   <i type="string" name="PREC">normal</i>
   <i name="ENMAX">    600.00000000</i>
   <i name="ENAUG">    455.65900000</i>
   <i name="EDIFF">      0.00010000</i>
   <i type="int" name="IALGO">    38</i>
   <i type="int" name="IWAVPR">    11</i>
   <i type="int" name="NBANDS">   120</i>
   <i name="NELECT">    200.00000000</i>
   <i type="int" name="TURBO">     0</i>
   <i type="int" name="IRESTART">     0</i>
   <i type="int" name="NREBOOT">     0</i>
   <i type="int" name="NMIN">     0</i>
   <i name="EREF">      0.00000000</i>
   <separator name="electronic smearing" >
    <i type="int" name="ISMEAR">     1</i>
    <i name="SIGMA">      0.20000000</i>
    <i name="KSPACING">      0.50000000</i>
    <i type="logical" name="KGAMMA"> T  </i>
   </separator>
   <separator name="electronic projectors" >
    <i type="logical" name="LREAL"> T  </i>
    <v name="ROPT">     -0.00050000     -0.00050000     -0.00050000     -0.00050000     -0.00050000</v>
    <i type="int" name="LMAXPAW">  -100</i>
    <i type="int" name="LMAXMIX">     2</i>
    <i type="logical" name="NLSPLINE"> F  </i>
   </separator>
   <separator name="electronic startup" >
    <i type="int" name="ISTART">     0</i>
    <i type="int" name="ICHARG">     2</i>
    <i type="int" name="INIWAV">     1</i>
   </separator>
   <separator name="electronic spin" >
    <i type="int" name="ISPIN">     1</i>
    <i type="logical" name="LNONCOLLINEAR"> F  </i>
    <v name="MAGMOM">      1.00000000      1.00000000      1.00000000      1.00000000      1.00000000      1.00000000      1.00000000      1.00000000      1.00000000      1.00000000      1.00000000      1.00000000      1.00000000      1.00000000      1.00000000      1.00000000      1.00000000      1.00000000      1.00000000      1.00000000
      1.00000000      1.00000000      1.00000000      1.00000000      1.00000000      1.00000000      1.00000000      1.00000000      1.00000000</v>
    <i name="NUPDOWN">     -1.00000000</i>
    <i type="logical" name="LSORBIT"> F  </i>
    <v name="SAXIS">      0.00000000      0.00000000      1.00000000</v>
    <i type="logical" name="LSPIRAL"> F  </i>
    <v name="QSPIRAL">      0.00000000      0.00000000      0.00000000</v>
    <i type="logical" name="LZEROZ"> F  </i>
   </separator>
   <separator name="electronic exchange-correlation" >
    <i type="logical" name="LASPH"> F  </i>
    <i type="logical" name="LMETAGGA"> F  </i>
   </separator>
   <separator name="electronic convergence" >
    <i type="int" name="NELM">    60</i>
    <i type="int" name="NELMDL">    -5</i>
    <i type="int" name="NELMIN">     2</i>
    <i name="ENINI">    600.00000000</i>
    <separator name="electronic convergence detail" >
     <i type="logical" name="LDIAG"> T  </i>
     <i type="logical" name="LSUBROT"> F  </i>
     <i name="WEIMIN">      0.00100000</i>
     <i name="EBREAK">      0.00000021</i>
     <i name="DEPER">      0.30000000</i>
     <i type="int" name="NRMM">     4</i>
     <i name="TIME">      0.40000000</i>
    </separator>
   </separator>
   <separator name="electronic mixer" >
    <i name="AMIX">      0.40000000</i>
    <i name="BMIX">      1.00000000</i>
    <i name="AMIN">      0.10000000</i>
    <i name="AMIX_MAG">      1.60000000</i>
    <i name="BMIX_MAG">      1.00000000</i>
    <separator name="electronic mixer details" >
     <i type="int" name="IMIX">     4</i>
     <i type="logical" name="MIXFIRST"> F  </i>
     <i type="int" name="MAXMIX">   -45</i>
     <i name="WC">    100.00000000</i>
     <i type="int" name="INIMIX">     1</i>
     <i type="int" name="MIXPRE">     1</i>
     <i type="int" name="MREMOVE">     5</i>
    </separator>
   </separator>
   <separator name="electronic dipolcorrection" >
    <i type="logical" name="LDIPOL"> F  </i>
    <i type="logical" name="LMONO"> F  </i>
    <i type="int" name="IDIPOL">     0</i>
    <i name="EPSILON">      1.00000000</i>
    <v name="DIPOL">   -100.00000000   -100.00000000   -100.00000000</v>
    <i name="EFIELD">      0.00000000</i>
   </separator>
  </separator>
  <separator name="grids" >
   <i type="int" name="NGX">    36</i>
   <i type="int" name="NGY">    50</i>
   <i type="int" name="NGZ">    70</i>
   <i type="int" name="NGXF">    72</i>
   <i type="int" name="NGYF">   100</i>
   <i type="int" name="NGZF">   140</i>
   <i type="logical" name="ADDGRID"> F  </i>
  </separator>
  <separator name="ionic" >
   <i type="int" name="NSW">    20</i>
   <i type="int" name="IBRION">     2</i>
   <i type="int" name="MDALGO">     0</i>
   <i type="int" name="ISIF">     3</i>
   <i name="PSTRESS">      0.00000000</i>
   <i name="EDIFFG">      0.00100000</i>
   <i type="int" name="NFREE">     1</i>
   <i name="POTIM">      0.50000000</i>
   <i name="SMASS">     -3.00000000</i>
   <i name="SCALEE">      1.00000000</i>
  </separator>
  <separator name="ionic md" >
   <i name="TEBEG">      0.00010000</i>
   <i name="TEEND">      0.00010000</i>
   <i type="int" name="NBLOCK">     1</i>
   <i type="int" name="KBLOCK">    20</i>
   <i type="int" name="NPACO">   256</i>
   <i name="APACO">     16.00000000</i>
  </separator>
  <separator name="symmetry" >
   <i type="int" name="ISYM">     0</i>
   <i name="SYMPREC">      0.00001000</i>
  </separator>
  <separator name="dos" >
   <i type="int" name="LORBIT">     0</i>
   <v name="RWIGS">     -1.00000000     -1.00000000     -1.00000000     -1.00000000     -1.00000000</v>
   <i type="int" name="NEDOS">   301</i>
   <i name="EMIN">     10.00000000</i>
   <i name="EMAX">    -10.00000000</i>
   <i name="EFERMI">      0.00000000</i>
  </separator>
  <separator name="writing" >
   <i type="int" name="NWRITE">     2</i>
   <i type="logical" name="LWAVE"> T  </i>
   <i type="logical" name="LDOWNSAMPLE"> F  </i>
   <i type="logical" name="LCHARG"> T  </i>
   <i type="logical" name="LPARD"> F  </i>
   <i type="logical" name="LVTOT"> F  </i>
   <i type="logical" name="LVHAR"> F  </i>
   <i type="logical" name="LELF"> F  </i>
   <i type="logical" name="LOPTICS"> F  </i>
   <v name="STM">      0.00000000      0.00000000      0.00000000      0.00000000      0.00000000      0.00000000      0.00000000</v>
  </separator>
  <separator name="performance" >
   <i type="int" name="NPAR">     8</i>
   <i type="int" name="NSIM">     4</i>
   <i type="int" name="NBLK">    -1</i>
   <i type="logical" name="LPLANE"> T  </i>
   <i type="logical" name="LSCALAPACK"> T  </i>
   <i type="logical" name="LSCAAWARE"> F  </i>
   <i type="logical" name="LSCALU"> F  </i>
   <i type="logical" name="LASYNC"> F  </i>
   <i type="logical" name="LORBITALREAL"> F  </i>
  </separator>
  <separator name="miscellaneous" >
   <i type="int" name="IDIOT">     3</i>
   <i type="int" name="ISPECIAL">     0</i>
   <i type="logical" name="LMUSIC"> F  </i>
   <v name="POMASS">     92.91000000     95.94000000    180.94800000     47.88000000    183.85000000</v>
   <v name="DARWINR">      0.00000000      0.00000000      0.00000000      0.00000000      0.00000000</v>
   <v name="DARWINV">      1.00000000      1.00000000      1.00000000      1.00000000      1.00000000</v>
   <i type="logical" name="LCORR"> T  </i>
  </separator>
  <i type="logical" name="GGA_COMPAT"> T  </i>
  <i type="logical" name="LBERRY"> F  </i>
  <i type="int" name="ICORELEVEL">     0</i>
  <i type="logical" name="LDAU"> F  </i>
  <i type="int" name="I_CONSTRAINED_M">     0</i>
  <separator name="electronic exchange-correlation" >
   <i type="string" name="GGA">PS</i>
   <i type="int" name="VOSKOWN">     0</i>
   <i type="logical" name="LHFCALC"> F  </i>
   <i type="string" name="PRECFOCK"></i>
   <i type="logical" name="LSYMGRAD"> F  </i>
   <i type="logical" name="LHFONE"> F  </i>
   <i type="logical" name="LRHFCALC"> F  </i>
   <i type="logical" name="LTHOMAS"> F  </i>
   <i type="logical" name="LMODELHF"> F  </i>
   <i name="ENCUT4O">     -1.00000000</i>
   <i type="int" name="EXXOEP">     0</i>
   <i type="int" name="FOURORBIT">     0</i>
   <i name="AEXX">      0.00000000</i>
   <i name="HFALPHA">      0.00000000</i>
   <i name="MCALPHA">      0.00000000</i>
   <i name="ALDAX">      1.00000000</i>
   <i name="AGGAX">      1.00000000</i>
   <i name="ALDAC">      1.00000000</i>
   <i name="AGGAC">      1.00000000</i>
   <i type="int" name="NKREDX">     1</i>
   <i type="int" name="NKREDY">     1</i>
   <i type="int" name="NKREDZ">     1</i>
   <i type="logical" name="SHIFTRED"> F  </i>
   <i type="logical" name="ODDONLY"> F  </i>
   <i type="logical" name="EVENONLY"> F  </i>
   <i type="int" name="LMAXFOCK">     0</i>
   <i type="int" name="NMAXFOCKAE">     0</i>
   <i type="logical" name="LFOCKAEDFT"> F  </i>
   <i name="HFSCREEN">      0.00000000</i>
   <i name="HFSCREENC">      0.00000000</i>
   <i type="int" name="NBANDSGWLOW">     0</i>
  </separator>
  <separator name="vdW DFT" >
   <i type="logical" name="LUSE_VDW"> F  </i>
   <i name="Zab_VDW">     -0.84910000</i>
   <i name="PARAM1">      0.12340000</i>
   <i name="PARAM2">      1.00000000</i>
   <i name="PARAM3">      0.00000000</i>
  </separator>
  <separator name="model GW" >
   <i type="int" name="MODEL_GW">     0</i>
   <i name="MODEL_EPS0">     10.07433900</i>
   <i name="MODEL_ALPHA">      1.00000000</i>
  </separator>
  <separator name="linear response parameters" >
   <i type="logical" name="LEPSILON"> F  </i>
   <i type="logical" name="LRPA"> F  </i>
   <i type="logical" name="LNABLA"> F  </i>
   <i type="logical" name="LVEL"> F  </i>
   <i type="int" name="KINTER">     0</i>
   <i name="CSHIFT">      0.10000000</i>
   <i name="OMEGAMAX">     -1.00000000</i>
   <i name="DEG_THRESHOLD">      0.00200000</i>
   <i name="RTIME">     -0.10000000</i>
   <i name="WPLASMAI">      0.00000000</i>
   <v name="DFIELD">      0.00000000      0.00000000      0.00000000</v>
   <v name="WPLASMA">      0.00000000      0.00000000      0.00000000      0.00000000      0.00000000      0.00000000      0.00000000      0.00000000      0.00000000</v>
  </separator>
  <separator name="orbital magnetization" >
   <i type="logical" name="NUCIND"> F  </i>
   <v name="MAGPOS">      0.00000000      0.00000000      0.00000000</v>
   <i type="logical" name="LNICSALL"> T  </i>
   <i type="logical" name="ORBITALMAG"> F  </i>
   <i type="logical" name="LMAGBLOCH"> F  </i>
   <i type="logical" name="LCHIMAG"> F  </i>
   <i type="logical" name="LGAUGE"> T  </i>
   <i type="int" name="MAGATOM">     0</i>
   <v name="MAGDIPOL">      0.00000000      0.00000000      0.00000000</v>
   <v name="AVECCONST">      0.00000000      0.00000000      0.00000000</v>
  </separator>
  <separator name="response functions" >
   <i type="logical" name="LADDER"> F  </i>
   <i type="logical" name="LRPAFORCE"> F  </i>
   <i type="logical" name="LFXC"> F  </i>
   <i type="logical" name="LHARTREE"> T  </i>
   <i type="int" name="IBSE">     0</i>
   <v type="int" name="KPOINT">    -1     0     0     0</v>
   <i type="logical" name="LTCTE"> F  </i>
   <i type="logical" name="LTETE"> F  </i>
   <i type="logical" name="LTRIPLET"> F  </i>
   <i type="logical" name="LFXCEPS"> F  </i>
   <i type="logical" name="LFXHEG"> F  </i>
   <i type="int" name="NATURALO">     2</i>
   <i type="logical" name="L2ORDER"> F  </i>
   <i type="logical" name="LMP2LT"> F  </i>
   <i type="logical" name="LUSEW"> F  </i>
   <i name="ENCUTGW">     -2.00000000</i>
   <i name="ENCUTGWSOFT">     -2.00000000</i>
   <i name="ENCUTLF">     -1.00000000</i>
   <i type="int" name="LMAXMP2">    -1</i>
   <i name="SCISSOR">      0.00000000</i>
   <i type="int" name="NOMEGA">     0</i>
   <i type="int" name="NOMEGAR">     0</i>
   <i type="int" name="NBANDSGW">    -1</i>
   <i type="int" name="NBANDSO">    -1</i>
   <i type="int" name="NBANDSV">    -1</i>
   <i type="int" name="NELM">     1</i>
   <i type="int" name="NELMHF">     1</i>
   <i type="int" name="DIM">     3</i>
   <i type="int" name="ANTIRES">     0</i>
   <i name="OMEGAMAX">    -30.00000000</i>
   <i name="OMEGAMIN">    -30.00000000</i>
   <i name="OMEGATL">   -200.00000000</i>
   <i type="int" name="OMEGAGRID">   140</i>
   <i name="CSHIFT">     -0.10000000</i>
   <i type="logical" name="SELFENERGY"> F  </i>
   <i type="logical" name="LSPECTRAL"> F  </i>
   <i type="logical" name="LSPECTRALGW"> F  </i>
   <i type="logical" name="LSINGLES"> F  </i>
   <i type="logical" name="LFERMIGW"> F  </i>
   <i type="logical" name="ODDONLYGW"> F  </i>
   <i type="logical" name="EVENONLYGW"> F  </i>
   <i type="int" name="NKREDLFX">     1</i>
   <i type="int" name="NKREDLFY">     1</i>
   <i type="int" name="NKREDLFZ">     1</i>
   <i type="int" name="MAXMEM">  2800</i>
   <i type="int" name="TELESCOPE">     0</i>
   <i type="int" name="TAUPAR">     1</i>
   <i type="int" name="OMEGAPAR">    -1</i>
   <i name="LAMBDA">      1.00000000</i>
  </separator>
  <separator name="External order field" >
   <i name="OFIELD_KAPPA">      0.00000000</i>
   <v name="OFIELD_K">      0.00000000      0.00000000      0.00000000</v>
   <i name="OFIELD_Q6_NEAR">      0.00000000</i>
   <i name="OFIELD_Q6_FAR">      0.00000000</i>
   <i name="OFIELD_A">      0.00000000</i>
  </separator>
  <separator name="solvation model" >
   <i type="logical" name="LSOL"> F  </i>
  </separator>
 </parameters>
 <atominfo>
  <atoms>      29 </atoms>
  <types>       5 </types>
  <array name="atoms" >
   <dimension dim="1">ion</dimension>
   <field type="string">element</field>
   <field type="int">atomtype</field>
   <set>
    <rc><c>Nb</c><c>   1</c></rc>
    <rc><c>Nb</c><c>   1</c></rc>
    <rc><c>Nb</c><c>   1</c></rc>
    <rc><c>Nb</c><c>   1</c></rc>
    <rc><c>Nb</c><c>   1</c></rc>
    <rc><c>Nb</c><c>   1</c></rc>
    <rc><c>Mo</c><c>   2</c></rc>
    <rc><c>Mo</c><c>   2</c></rc>
    <rc><c>Mo</c><c>   2</c></rc>
    <rc><c>Mo</c><c>   2</c></rc>
    <rc><c>Mo</c><c>   2</c></rc>
    <rc><c>Mo</c><c>   2</c></rc>
    <rc><c>Ta</c><c>   3</c></rc>
    <rc><c>Ta</c><c>   3</c></rc>
    <rc><c>Ta</c><c>   3</c></rc>
    <rc><c>Ta</c><c>   3</c></rc>
    <rc><c>Ta</c><c>   3</c></rc>
    <rc><c>Ta</c><c>   3</c></rc>
    <rc><c>Ti</c><c>   4</c></rc>
    <rc><c>Ti</c><c>   4</c></rc>
    <rc><c>Ti</c><c>   4</c></rc>
    <rc><c>Ti</c><c>   4</c></rc>
    <rc><c>Ti</c><c>   4</c></rc>
    <rc><c>W </c><c>   5</c></rc>
    <rc><c>W </c><c>   5</c></rc>
    <rc><c>W </c><c>   5</c></rc>
    <rc><c>W </c><c>   5</c></rc>
    <rc><c>W </c><c>   5</c></rc>
    <rc><c>W </c><c>   5</c></rc>
   </set>
  </array>
  <array name="atomtypes" >
   <dimension dim="1">type</dimension>
   <field type="int">atomspertype</field>
   <field type="string">element</field>
   <field>mass</field>
   <field>valence</field>
   <field type="string">pseudopotential</field>
   <set>
    <rc><c>   6</c><c>Nb</c><c>     92.91000000</c><c>     13.00000000</c><c>  PAW_PBE Nb_sv 25May2007               </c></rc>
    <rc><c>   6</c><c>Mo</c><c>     95.94000000</c><c>      6.00000000</c><c>  PAW_PBE Mo 08Apr2002                  </c></rc>
    <rc><c>   6</c><c>Ta</c><c>    180.94800000</c><c>      5.00000000</c><c>  PAW_PBE Ta 17Jan2003                  </c></rc>
    <rc><c>   5</c><c>Ti</c><c>     47.88000000</c><c>      4.00000000</c><c>  PAW_PBE Ti 08Apr2002                  </c></rc>
    <rc><c>   6</c><c>W </c><c>    183.85000000</c><c>      6.00000000</c><c>  PAW_PBE W 08Apr2002                   </c></rc>
   </set>
  </array>
 </atominfo>
 <structure name="initialpos" >
  <crystal>
   <varray name="basis" >
    <v>      -3.19000000      -3.19000000      -3.19000000 </v>
    <v>       1.59500000       1.59500000      -7.97500000 </v>
    <v>       7.97500000      -7.97500000      -1.59500000 </v>
   </varray>
   <i name="volume">    486.92638500 </i>
   <varray name="rec_basis" >
    <v>      -0.13584117      -0.12539185      -0.05224660 </v>
    <v>       0.04179728       0.06269592      -0.10449321 </v>
    <v>       0.06269592      -0.06269592       0.00000000 </v>
   </varray>
  </crystal>
  <varray name="positions" >
   <v>       0.96666667       0.93333333       0.40000000 </v>
   <v>       0.63333333       0.26666667       0.40000000 </v>
   <v>       0.50000000       0.00000000       0.00000000 </v>
   <v>       0.00000000       0.00000000       0.00000000 </v>
   <v>       0.10000000       0.20000000       0.80000000 </v>
   <v>       0.03333333       0.06666667       0.60000000 </v>
   <v>       0.90000000       0.80000000       0.20000000 </v>
   <v>       0.80000000       0.60000000       0.40000000 </v>
   <v>       0.73333333       0.46666667       0.20000000 </v>
   <v>       0.66666667       0.33333333       0.00000000 </v>
   <v>       0.36666667       0.73333333       0.60000000 </v>
   <v>       0.13333333       0.26666667       0.40000000 </v>
   <v>       0.83333333       0.66666667       0.00000000 </v>
   <v>       0.93333333       0.86666667       0.80000000 </v>
   <v>       0.56666667       0.13333333       0.20000000 </v>
   <v>       0.40000000       0.80000000       0.20000000 </v>
   <v>       0.43333333       0.86666667       0.80000000 </v>
   <v>       0.30000000       0.60000000       0.40000000 </v>
   <v>       0.86666667       0.73333333       0.60000000 </v>
   <v>       0.46666667       0.93333333       0.40000000 </v>
   <v>       0.26666667       0.53333333       0.80000000 </v>
   <v>       0.20000000       0.40000000       0.60000000 </v>
   <v>       0.06666667       0.13333333       0.20000000 </v>
   <v>       0.76666667       0.53333333       0.80000000 </v>
   <v>       0.70000000       0.40000000       0.60000000 </v>
   <v>       0.60000000       0.20000000       0.80000000 </v>
   <v>       0.53333333       0.06666667       0.60000000 </v>
   <v>       0.33333333       0.66666667       0.00000000 </v>
   <v>       0.23333333       0.46666667       0.20000000 </v>
  </varray>
 </structure>
 <calculation>
  <scstep>
   <time name="dav">   18.29   18.33</time>
   <time name="total">   18.33   18.37</time>
   <energy>
    <i name="alphaZ">   1318.14636210 </i>
    <i name="ewald"> -11703.60942723 </i>
    <i name="hartreedc">  -3145.68703126 </i>
    <i name="XCdc">   -868.18102559 </i>
    <i name="pawpsdc">  12179.31920212 </i>
    <i name="pawaedc"> -10655.17440453 </i>
    <i name="eentropy">      0.00171004 </i>
    <i name="bandstr">   1865.26222777 </i>
    <i name="atom">  13116.42875384 </i>
    <i name="e_fr_energy">   2106.50636726 </i>
    <i name="e_wo_entrp">   2106.50465723 </i>
    <i name="e_0_energy">   2106.50579725 </i>
   </energy>
  </scstep>
  <scstep>
   <time name="dav">   18.24   18.26</time>
   <time name="total">   18.24   18.27</time>
   <energy>
    <i name="e_fr_energy">     53.82820927 </i>
    <i name="e_wo_entrp">     53.82656704 </i>
    <i name="e_0_energy">     53.82766186 </i>
   </energy>
  </scstep>
  <scstep>
   <time name="dav">   28.76   28.80</time>
   <time name="total">   28.76   28.80</time>
   <energy>
    <i name="e_fr_energy">   -307.55454786 </i>
    <i name="e_wo_entrp">   -307.55710504 </i>
    <i name="e_0_energy">   -307.55540025 </i>
   </energy>
  </scstep>
  <scstep>
   <time name="dav">   25.77   25.82</time>
   <time name="total">   25.78   25.82</time>
   <energy>
    <i name="e_fr_energy">   -351.66896179 </i>
    <i name="e_wo_entrp">   -351.66658691 </i>
    <i name="e_0_energy">   -351.66817016 </i>
   </energy>
  </scstep>
  <scstep>
   <time name="dav">   30.97   31.02</time>
   <time name="total">   31.56   31.61</time>
   <energy>
    <i name="e_fr_energy">   -356.63791790 </i>
    <i name="e_wo_entrp">   -356.63438135 </i>
    <i name="e_0_energy">   -356.63673905 </i>
   </energy>
  </scstep>
  <scstep>
   <time name="dav">   23.90   23.93</time>
   <time name="total">   24.51   24.55</time>
   <energy>
    <i name="e_fr_energy">   -345.90060467 </i>
    <i name="e_wo_entrp">   -345.90370609 </i>
    <i name="e_0_energy">   -345.90163848 </i>
   </energy>
  </scstep>
  <scstep>
   <time name="dav">   24.38   24.41</time>
   <time name="total">   24.99   25.03</time>
   <energy>
    <i name="e_fr_energy">   -359.86334603 </i>
    <i name="e_wo_entrp">   -359.87535103 </i>
    <i name="e_0_energy">   -359.86734770 </i>
   </energy>
  </scstep>
  <scstep>
   <time name="dav">   25.00   25.03</time>
   <time name="total">   25.61   25.64</time>
   <energy>
    <i name="e_fr_energy">   -345.60234345 </i>
    <i name="e_wo_entrp">   -345.59668277 </i>
    <i name="e_0_energy">   -345.60045656 </i>
   </energy>
  </scstep>
  <scstep>
   <time name="dav">   24.03   24.06</time>
   <time name="total">   24.64   24.67</time>
   <energy>
    <i name="e_fr_energy">   -337.92390656 </i>
    <i name="e_wo_entrp">   -337.91361888 </i>
    <i name="e_0_energy">   -337.92047733 </i>
   </energy>
  </scstep>
  <scstep>
   <time name="dav">   24.54   24.57</time>
   <time name="total">   25.15   25.19</time>
   <energy>
    <i name="e_fr_energy">   -335.37854609 </i>
    <i name="e_wo_entrp">   -335.36658212 </i>
    <i name="e_0_energy">   -335.37455810 </i>
   </energy>
  </scstep>
  <scstep>
   <time name="dav">   24.69   24.73</time>
   <time name="total">   25.31   25.34</time>
   <energy>
    <i name="e_fr_energy">   -334.62434867 </i>
    <i name="e_wo_entrp">   -334.61748151 </i>
    <i name="e_0_energy">   -334.62205962 </i>
   </energy>
  </scstep>
  <scstep>
   <time name="dav">   25.63   25.67</time>
   <time name="total">   26.25   26.28</time>
   <energy>
    <i name="e_fr_energy">   -334.64066959 </i>
    <i name="e_wo_entrp">   -334.62830021 </i>
    <i name="e_0_energy">   -334.63654646 </i>
   </energy>
  </scstep>
  <scstep>
   <time name="dav">   25.57   25.60</time>
   <time name="total">   26.19   26.23</time>
   <energy>
    <i name="e_fr_energy">   -334.60940245 </i>
    <i name="e_wo_entrp">   -334.60155660 </i>
    <i name="e_0_energy">   -334.60678717 </i>
   </energy>
  </scstep>
  <scstep>
   <time name="dav">   25.57   25.60</time>
   <time name="total">   26.18   26.21</time>
   <energy>
    <i name="e_fr_energy">   -334.57840253 </i>
    <i name="e_wo_entrp">   -334.56873507 </i>
    <i name="e_0_energy">   -334.57518004 </i>
   </energy>
  </scstep>
  <scstep>
   <time name="dav">   25.31   25.34</time>
   <time name="total">   25.92   25.95</time>
   <energy>
    <i name="e_fr_energy">   -334.56582355 </i>
    <i name="e_wo_entrp">   -334.55630894 </i>
    <i name="e_0_energy">   -334.56265201 </i>
   </energy>
  </scstep>
  <scstep>
   <time name="dav">   25.02   25.05</time>
   <time name="total">   25.64   25.68</time>
   <energy>
    <i name="e_fr_energy">   -334.56805084 </i>
    <i name="e_wo_entrp">   -334.55777851 </i>
    <i name="e_0_energy">   -334.56462673 </i>
   </energy>
  </scstep>
  <scstep>
   <time name="dav">   24.01   24.04</time>
   <time name="total">   24.62   24.65</time>
   <energy>
    <i name="e_fr_energy">   -334.56546193 </i>
    <i name="e_wo_entrp">   -334.55548774 </i>
    <i name="e_0_energy">   -334.56213720 </i>
   </energy>
  </scstep>
  <scstep>
   <time name="dav">   24.14   24.17</time>
   <time name="total">   24.75   24.79</time>
   <energy>
    <i name="e_fr_energy">   -334.56352678 </i>
    <i name="e_wo_entrp">   -334.55381883 </i>
    <i name="e_0_energy">   -334.56029079 </i>
   </energy>
  </scstep>
  <scstep>
   <time name="dav">   23.89   23.93</time>
   <time name="total">   24.53   24.57</time>
   <energy>
    <i name="e_fr_energy">   -334.56340213 </i>
    <i name="e_wo_entrp">   -334.55365110 </i>
    <i name="e_0_energy">   -334.56015179 </i>
   </energy>
  </scstep>
  <scstep>
   <time name="dav">   21.54   21.57</time>
   <time name="total">   22.16   22.19</time>
   <energy>
    <i name="e_fr_energy">   -334.56340314 </i>
    <i name="e_wo_entrp">   -334.55365921 </i>
    <i name="e_0_energy">   -334.56015516 </i>
   </energy>
  </scstep>
  <scstep>
   <time name="dav">   19.86   19.88</time>
   <time name="total">   19.89   19.91</time>
   <energy>
    <i name="alphaZ">   1318.14636210 </i>
    <i name="ewald"> -11703.60942723 </i>
    <i name="hartreedc">  -3000.10419167 </i>
    <i name="XCdc">   -862.45797513 </i>
    <i name="pawpsdc">  21086.25584705 </i>
    <i name="pawaedc"> -19564.02552953 </i>
    <i name="eentropy">     -0.00984072 </i>
    <i name="bandstr">   -725.18733724 </i>
    <i name="atom">  13116.42875384 </i>
    <i name="e_fr_energy">   -334.56333853 </i>
    <i name="e_wo_entrp">   -334.55349781 </i>
    <i name="e_0_energy">   -334.56005829 </i>
   </energy>
  </scstep>
  <structure>
   <crystal>
    <varray name="basis" >
     <v>      -3.19000000      -3.19000000      -3.19000000 </v>
     <v>       1.59500000       1.59500000      -7.97500000 </v>
     <v>       7.97500000      -7.97500000      -1.59500000 </v>
    </varray>
    <i name="volume">    486.92638500 </i>
    <varray name="rec_basis" >
     <v>      -0.13584117      -0.12539185      -0.05224660 </v>
     <v>       0.04179728       0.06269592      -0.10449321 </v>
     <v>       0.06269592      -0.06269592       0.00000000 </v>
    </varray>
   </crystal>
   <varray name="positions" >
    <v>       0.96666667       0.93333333       0.40000000 </v>
    <v>       0.63333333       0.26666667       0.40000000 </v>
    <v>       0.50000000       0.00000000       0.00000000 </v>
    <v>       0.00000000       0.00000000       0.00000000 </v>
    <v>       0.10000000       0.20000000       0.80000000 </v>
    <v>       0.03333333       0.06666667       0.60000000 </v>
    <v>       0.90000000       0.80000000       0.20000000 </v>
    <v>       0.80000000       0.60000000       0.40000000 </v>
    <v>       0.73333333       0.46666667       0.20000000 </v>
    <v>       0.66666667       0.33333333       0.00000000 </v>
    <v>       0.36666667       0.73333333       0.60000000 </v>
    <v>       0.13333333       0.26666667       0.40000000 </v>
    <v>       0.83333333       0.66666667       0.00000000 </v>
    <v>       0.93333333       0.86666667       0.80000000 </v>
    <v>       0.56666667       0.13333333       0.20000000 </v>
    <v>       0.40000000       0.80000000       0.20000000 </v>
    <v>       0.43333333       0.86666667       0.80000000 </v>
    <v>       0.30000000       0.60000000       0.40000000 </v>
    <v>       0.86666667       0.73333333       0.60000000 </v>
    <v>       0.46666667       0.93333333       0.40000000 </v>
    <v>       0.26666667       0.53333333       0.80000000 </v>
    <v>       0.20000000       0.40000000       0.60000000 </v>
    <v>       0.06666667       0.13333333       0.20000000 </v>
    <v>       0.76666667       0.53333333       0.80000000 </v>
    <v>       0.70000000       0.40000000       0.60000000 </v>
    <v>       0.60000000       0.20000000       0.80000000 </v>
    <v>       0.53333333       0.06666667       0.60000000 </v>
    <v>       0.33333333       0.66666667       0.00000000 </v>
    <v>       0.23333333       0.46666667       0.20000000 </v>
   </varray>
  </structure>
  <varray name="forces" >
   <v>      -0.10357348       0.39180859       0.21811967 </v>
   <v>      -0.01518638       0.10308905       0.18174984 </v>
   <v>       0.39046035       0.65895125      -1.05786710 </v>
   <v>       0.36973118       0.01444097       0.27812415 </v>
   <v>       0.81574604       0.06754356      -0.86126603 </v>
   <v>      -0.65479549       0.28949010      -0.18356829 </v>
   <v>       0.23789330      -0.31149197       0.05732106 </v>
   <v>      -0.62386771      -0.20467751       0.55187861 </v>
   <v>       0.05081628       0.16365346       0.00690186 </v>
   <v>       0.23120136       0.54632957      -0.53832869 </v>
   <v>      -0.28291950      -0.08237286       0.40943330 </v>
   <v>       0.00494892       0.37115980      -0.49058706 </v>
   <v>      -0.32624364      -1.09581904       1.15560631 </v>
   <v>       0.33733291       0.17666878      -0.19642886 </v>
   <v>      -0.42698035       0.01105806      -0.14261690 </v>
   <v>      -0.75066803      -0.10182487       0.56781259 </v>
   <v>      -0.80046247      -0.16447771       0.66925119 </v>
   <v>       0.38016959      -0.28973044      -0.32793020 </v>
   <v>       0.12846110       0.28597905       0.27507146 </v>
   <v>       0.54675709      -0.45804612       0.11086743 </v>
   <v>       0.07441974      -0.60904858       0.09634967 </v>
   <v>      -0.25171710      -0.04969327       0.55163680 </v>
   <v>       0.30061401       0.41269341      -1.06438971 </v>
   <v>       0.01887854       0.13119872       0.80799779 </v>
   <v>       0.84145305      -0.04083959      -0.80763478 </v>
   <v>      -0.49268014       0.31807295      -0.20900643 </v>
   <v>       0.25191114      -0.30813250      -0.43876228 </v>
   <v>      -0.11058051      -0.64696974       0.45562315 </v>
   <v>      -0.14111982       0.42098690      -0.07535852 </v>
  </varray>
  <varray name="stress" >
   <v>     -23.42367716       3.22582283       4.08811922 </v>
   <v>       3.22582287     -26.16392867       6.53955070 </v>
   <v>       4.08811921       6.53955061     -26.09698156 </v>
  </varray>
  <energy>
   <i name="e_fr_energy">   -334.56333853 </i>
   <i name="e_wo_entrp">   -334.56005829 </i>
   <i name="e_0_energy">     -0.00984072 </i>
  </energy>
  <time name="totalsc">  537.67  538.50</time>
 </calculation>
 <calculation>
  <scstep>
   <time name="dav">   19.04   19.06</time>
   <time name="total">   19.68   19.71</time>
   <energy>
    <i name="alphaZ">   1369.92475600 </i>
    <i name="ewald"> -11911.72766807 </i>
    <i name="hartreedc">  -2984.55473959 </i>
    <i name="XCdc">   -857.71102900 </i>
    <i name="pawpsdc">  21085.20779337 </i>
    <i name="pawaedc"> -19562.95892761 </i>
    <i name="eentropy">     -0.00173214 </i>
    <i name="bandstr">   -590.34335868 </i>
    <i name="atom">  13116.42875384 </i>
    <i name="e_fr_energy">   -335.73615191 </i>
    <i name="e_wo_entrp">   -335.73441977 </i>
    <i name="e_0_energy">   -335.73557453 </i>
   </energy>
  </scstep>
  <scstep>
   <time name="dav">   25.74   25.77</time>
   <time name="total">   26.36   26.39</time>
   <energy>
    <i name="e_fr_energy">   -336.08956964 </i>
    <i name="e_wo_entrp">   -336.07998587 </i>
    <i name="e_0_energy">   -336.08637505 </i>
   </energy>
  </scstep>
  <scstep>
   <time name="dav">   24.72   24.75</time>
   <time name="total">   25.34   25.38</time>
   <energy>
    <i name="e_fr_energy">   -335.60492702 </i>
    <i name="e_wo_entrp">   -335.60488442 </i>
    <i name="e_0_energy">   -335.60491282 </i>
   </energy>
  </scstep>
  <scstep>
   <time name="dav">   26.41   26.44</time>
   <time name="total">   27.03   27.06</time>
   <energy>
    <i name="e_fr_energy">   -335.33907228 </i>
    <i name="e_wo_entrp">   -335.33190243 </i>
    <i name="e_0_energy">   -335.33668233 </i>
   </energy>
  </scstep>
  <scstep>
   <time name="dav">   25.30   25.34</time>
   <time name="total">   25.92   25.96</time>
   <energy>
    <i name="e_fr_energy">   -335.10822051 </i>
    <i name="e_wo_entrp">   -335.10408807 </i>
    <i name="e_0_energy">   -335.10684303 </i>
   </energy>
  </scstep>
  <scstep>
   <time name="dav">   26.57   26.60</time>
   <time name="total">   27.20   27.24</time>
   <energy>
    <i name="e_fr_energy">   -335.00392243 </i>
    <i name="e_wo_entrp">   -334.99628599 </i>
    <i name="e_0_energy">   -335.00137695 </i>
   </energy>
  </scstep>
  <scstep>
   <time name="dav">   27.61   27.65</time>
   <time name="total">   28.23   28.27</time>
   <energy>
    <i name="e_fr_energy">   -335.01077555 </i>
    <i name="e_wo_entrp">   -335.00352521 </i>
    <i name="e_0_energy">   -335.00835877 </i>
   </energy>
  </scstep>
  <scstep>
   <time name="dav">   25.81   25.85</time>
   <time name="total">   26.43   26.47</time>
   <energy>
    <i name="e_fr_energy">   -335.01150046 </i>
    <i name="e_wo_entrp">   -335.00444741 </i>
    <i name="e_0_energy">   -335.00914944 </i>
   </energy>
  </scstep>
  <scstep>
   <time name="dav">   25.30   25.33</time>
   <time name="total">   25.95   25.99</time>
   <energy>
    <i name="e_fr_energy">   -335.01579510 </i>
    <i name="e_wo_entrp">   -335.00824488 </i>
    <i name="e_0_energy">   -335.01327836 </i>
   </energy>
  </scstep>
  <scstep>
   <time name="dav">   26.25   26.29</time>
   <time name="total">   26.88   26.92</time>
   <energy>
    <i name="e_fr_energy">   -335.01691926 </i>
    <i name="e_wo_entrp">   -335.01003654 </i>
    <i name="e_0_energy">   -335.01462502 </i>
   </energy>
  </scstep>
  <scstep>
   <time name="dav">   26.61   26.65</time>
   <time name="total">   27.25   27.29</time>
   <energy>
    <i name="e_fr_energy">   -335.01774954 </i>
    <i name="e_wo_entrp">   -335.01038067 </i>
    <i name="e_0_energy">   -335.01529325 </i>
   </energy>
  </scstep>
  <scstep>
   <time name="dav">   25.97   26.00</time>
   <time name="total">   26.61   26.66</time>
   <energy>
    <i name="e_fr_energy">   -335.01793181 </i>
    <i name="e_wo_entrp">   -335.01071668 </i>
    <i name="e_0_energy">   -335.01552677 </i>
   </energy>
  </scstep>
  <scstep>
   <time name="dav">   23.77   23.80</time>
   <time name="total">   24.39   24.43</time>
   <energy>
    <i name="e_fr_energy">   -335.01796073 </i>
    <i name="e_wo_entrp">   -335.01069524 </i>
    <i name="e_0_energy">   -335.01553890 </i>
   </energy>
  </scstep>
  <scstep>
   <time name="dav">   15.68   15.71</time>
   <time name="total">   15.72   15.74</time>
   <energy>
    <i name="alphaZ">   1369.92475600 </i>
    <i name="ewald"> -11911.72766807 </i>
    <i name="hartreedc">  -2914.08887321 </i>
    <i name="XCdc">   -859.70565932 </i>
    <i name="pawpsdc">  22347.70246537 </i>
    <i name="pawaedc"> -20826.24102599 </i>
    <i name="eentropy">     -0.00722816 </i>
    <i name="bandstr">   -657.30346539 </i>
    <i name="atom">  13116.42875384 </i>
    <i name="e_fr_energy">   -335.01794494 </i>
    <i name="e_wo_entrp">   -335.01071678 </i>
    <i name="e_0_energy">   -335.01553555 </i>
   </energy>
  </scstep>
  <structure>
   <crystal>
    <varray name="basis" >
     <v>      -3.16401845      -3.16355265      -3.16505132 </v>
     <v>       1.56222945       1.55013565      -7.86120784 </v>
     <v>       7.86425355      -7.86177504      -1.58383967 </v>
    </varray>
    <i name="volume">    468.52226021 </i>
    <varray name="rec_basis" >
     <v>      -0.13715082      -0.12667106      -0.05223350 </v>
     <v>       0.04241498       0.06382208      -0.10619299 </v>
     <v>       0.06355216      -0.06364168       0.00008012 </v>
    </varray>
   </crystal>
   <varray name="positions" >
    <v>       0.96442551       0.93321001       0.39850166 </v>
    <v>       0.63235114       0.26603165       0.39964226 </v>
    <v>       0.49612140       0.00811314      -0.00081208 </v>
    <v>      -0.00321135      -0.00061282       0.00107462 </v>
    <v>       0.09641639       0.20619084       0.80226303 </v>
    <v>       0.03633592       0.06714730       0.59714390 </v>
    <v>       0.90018081       0.79924859       0.20166168 </v>
    <v>       0.80393554       0.59534092       0.39873211 </v>
    <v>       0.73199294       0.46722933       0.19965871 </v>
    <v>       0.66320352       0.33816570      -0.00095314 </v>
    <v>       0.36798705       0.73044974       0.59939342 </v>
    <v>       0.13229220       0.27027233       0.39889235 </v>
    <v>       0.83918746       0.65686895       0.00232767 </v>
    <v>       0.93054906       0.86887143       0.80048595 </v>
    <v>       0.56975739       0.13322474       0.19867510 </v>
    <v>       0.40410416       0.79531600       0.19803750 </v>
    <v>       0.43788714       0.86118141       0.79807639 </v>
    <v>       0.30008782       0.60154336       0.40202619 </v>
    <v>       0.86340154       0.73307069       0.59952357 </v>
    <v>       0.46557497       0.93249152       0.40303915 </v>
    <v>       0.26962040       0.53115555       0.80206723 </v>
    <v>       0.20055978       0.39656131       0.59938896 </v>
    <v>       0.06488298       0.14055335       0.19966100 </v>
    <v>       0.76371273       0.52969508       0.79966027 </v>
    <v>       0.69676838       0.40564450       0.60266860 </v>
    <v>       0.60183141       0.20102221       0.79754778 </v>
    <v>       0.53465234       0.06845446       0.60169392 </v>
    <v>       0.33682327       0.66219005       0.00162237 </v>
    <v>       0.23190143       0.46803532       0.19829984 </v>
   </varray>
  </structure>
  <varray name="forces" >
   <v>      -0.13760971       0.30228396       0.12626655 </v>
   <v>      -0.02974864       0.09400898       0.04356278 </v>
   <v>       0.23993925       0.57272888      -0.48435344 </v>
   <v>       0.14691835       0.00668221       0.01752662 </v>
   <v>       0.33703023      -0.30254228      -0.42629657 </v>
   <v>      -0.25383957       0.08226663      -0.17776014 </v>
   <v>       0.04434458      -0.07329165      -0.00105936 </v>
   <v>      -0.18407046      -0.13420958       0.10246116 </v>
   <v>      -0.04721609      -0.11175976       0.11433596 </v>
   <v>       0.11062428       0.25363385      -0.11811394 </v>
   <v>      -0.07731960      -0.01719029       0.21443342 </v>
   <v>       0.02099055       0.15397388      -0.14266794 </v>
   <v>      -0.40577369      -0.64371732       0.55118739 </v>
   <v>       0.02458633      -0.14660315       0.04714809 </v>
   <v>      -0.04488442       0.01250909       0.01728192 </v>
   <v>      -0.15723628      -0.02836776      -0.06973330 </v>
   <v>      -0.02656464      -0.04536812       0.19197622 </v>
   <v>       0.19953003      -0.25396334      -0.09642487 </v>
   <v>       0.03432575       0.18716289       0.09386184 </v>
   <v>       0.22279192      -0.21928505       0.11528087 </v>
   <v>       0.24234533      -0.34413952       0.30123183 </v>
   <v>      -0.03160490       0.00267412       0.21484078 </v>
   <v>      -0.06805612       0.38756095      -0.80754852 </v>
   <v>       0.01775766      -0.10896604       0.10205441 </v>
   <v>       0.16944905       0.07559752      -0.21395666 </v>
   <v>      -0.06969642       0.19405159      -0.06136344 </v>
   <v>       0.02548462      -0.05715973      -0.13059626 </v>
   <v>      -0.11385100      -0.05462086       0.30213263 </v>
   <v>      -0.18864638       0.21604989       0.17429198 </v>
  </varray>
  <varray name="stress" >
   <v>      61.66680184       0.81968685       3.22940753 </v>
   <v>       0.81968684      60.69949797       3.90177909 </v>
   <v>       3.22940763       3.90177882      61.24238025 </v>
  </varray>
  <energy>
   <i name="e_fr_energy">   -335.01794494 </i>
   <i name="e_wo_entrp">   -335.01553555 </i>
   <i name="e_0_energy">     -0.00722816 </i>
  </energy>
  <time name="totalsc">  371.92  372.48</time>
 </calculation>
 <calculation>
  <scstep>
   <time name="dav">   19.46   19.49</time>
   <time name="total">   20.09   20.12</time>
   <energy>
    <i name="alphaZ">   1359.30175778 </i>
    <i name="ewald"> -11870.16127861 </i>
    <i name="hartreedc">  -2916.93421304 </i>
    <i name="XCdc">   -860.65695634 </i>
    <i name="pawpsdc">  22346.84679387 </i>
    <i name="pawaedc"> -20825.33946056 </i>
    <i name="eentropy">     -0.00857922 </i>
    <i name="bandstr">   -684.55188850 </i>
    <i name="atom">  13116.42875384 </i>
    <i name="e_fr_energy">   -335.07507079 </i>
    <i name="e_wo_entrp">   -335.06649156 </i>
    <i name="e_0_energy">   -335.07221105 </i>
   </energy>
  </scstep>
  <scstep>
   <time name="dav">   26.71   26.75</time>
   <time name="total">   27.33   27.38</time>
   <energy>
    <i name="e_fr_energy">   -335.08993185 </i>
    <i name="e_wo_entrp">   -335.08403518 </i>
    <i name="e_0_energy">   -335.08796629 </i>
   </energy>
  </scstep>
  <scstep>
   <time name="dav">   25.72   25.76</time>
   <time name="total">   26.34   26.39</time>
   <energy>
    <i name="e_fr_energy">   -335.08706967 </i>
    <i name="e_wo_entrp">   -335.07842437 </i>
    <i name="e_0_energy">   -335.08418791 </i>
   </energy>
  </scstep>
  <scstep>
   <time name="dav">   26.10   26.13</time>
   <time name="total">   26.72   26.76</time>
   <energy>
    <i name="e_fr_energy">   -335.06362516 </i>
    <i name="e_wo_entrp">   -335.05654467 </i>
    <i name="e_0_energy">   -335.06126500 </i>
   </energy>
  </scstep>
  <scstep>
   <time name="dav">   25.24   25.28</time>
   <time name="total">   25.87   25.90</time>
   <energy>
    <i name="e_fr_energy">   -335.05335473 </i>
    <i name="e_wo_entrp">   -335.04539497 </i>
    <i name="e_0_energy">   -335.05070148 </i>
   </energy>
  </scstep>
  <scstep>
   <time name="dav">   25.89   25.93</time>
   <time name="total">   26.52   26.57</time>
   <energy>
    <i name="e_fr_energy">   -335.05099753 </i>
    <i name="e_wo_entrp">   -335.04370965 </i>
    <i name="e_0_energy">   -335.04856824 </i>
   </energy>
  </scstep>
  <scstep>
   <time name="dav">   26.43   26.47</time>
   <time name="total">   27.05   27.09</time>
   <energy>
    <i name="e_fr_energy">   -335.05059645 </i>
    <i name="e_wo_entrp">   -335.04315016 </i>
    <i name="e_0_energy">   -335.04811435 </i>
   </energy>
  </scstep>
  <scstep>
   <time name="dav">   23.39   23.43</time>
   <time name="total">   24.01   24.05</time>
   <energy>
    <i name="e_fr_energy">   -335.05058002 </i>
    <i name="e_wo_entrp">   -335.04302948 </i>
    <i name="e_0_energy">   -335.04806318 </i>
   </energy>
  </scstep>
  <scstep>
   <time name="dav">   22.63   22.66</time>
   <time name="total">   23.26   23.30</time>
   <energy>
    <i name="e_fr_energy">   -335.05065611 </i>
    <i name="e_wo_entrp">   -335.04320804 </i>
    <i name="e_0_energy">   -335.04817342 </i>
   </energy>
  </scstep>
  <scstep>
   <time name="dav">   21.27   21.31</time>
   <time name="total">   21.31   21.34</time>
   <energy>
    <i name="alphaZ">   1359.30175778 </i>
    <i name="ewald"> -11870.16127861 </i>
    <i name="hartreedc">  -2931.20501789 </i>
    <i name="XCdc">   -860.24641025 </i>
    <i name="pawpsdc">  22076.43023894 </i>
    <i name="pawaedc"> -20554.33601125 </i>
    <i name="eentropy">     -0.00752282 </i>
    <i name="bandstr">   -671.25523572 </i>
    <i name="atom">  13116.42875384 </i>
    <i name="e_fr_energy">   -335.05072597 </i>
    <i name="e_wo_entrp">   -335.04320315 </i>
    <i name="e_0_energy">   -335.04821837 </i>
   </energy>
  </scstep>
  <structure>
   <crystal>
    <varray name="basis" >
     <v>      -3.16923897      -3.16886676      -3.17006430 </v>
     <v>       1.56881410       1.55915032      -7.88407231 </v>
     <v>       7.88650604      -7.88452553      -1.58608213 </v>
    </varray>
    <i name="volume">    472.18378063 </i>
    <varray name="rec_basis" >
     <v>      -0.13688549      -0.12641162      -0.05223729 </v>
     <v>       0.04228940       0.06359262      -0.10584699 </v>
     <v>       0.06337825      -0.06344934       0.00006363 </v>
    </varray>
   </crystal>
   <varray name="positions" >
    <v>       0.96487934       0.93323472       0.39880701 </v>
    <v>       0.63254955       0.26616120       0.39971507 </v>
    <v>       0.49691400       0.00645599      -0.00064529 </v>
    <v>      -0.00256125      -0.00048748       0.00085554 </v>
    <v>       0.09714775       0.20492709       0.80180283 </v>
    <v>       0.03572790       0.06704846       0.59772601 </v>
    <v>       0.90014363       0.79940249       0.20132292 </v>
    <v>       0.80313424       0.59629214       0.39898974 </v>
    <v>       0.73226494       0.46711430       0.19972836 </v>
    <v>       0.66390915       0.33717850      -0.00075812 </v>
    <v>       0.36771708       0.73103848       0.59951658 </v>
    <v>       0.13250612       0.26953567       0.39911866 </v>
    <v>       0.83799330       0.65887058       0.00185173 </v>
    <v>       0.93111501       0.86842124       0.80038728 </v>
    <v>       0.56913110       0.13324665       0.19894507 </v>
    <v>       0.40326864       0.79627213       0.19843668 </v>
    <v>       0.43695985       0.86230119       0.79846752 </v>
    <v>       0.30007145       0.60122873       0.40161351 </v>
    <v>       0.86406275       0.73312411       0.59962064 </v>
    <v>       0.46579558       0.93266422       0.40241966 </v>
    <v>       0.26902028       0.53160093       0.80164558 </v>
    <v>       0.20044342       0.39726339       0.59951294 </v>
    <v>       0.06525045       0.13907878       0.19973123 </v>
    <v>       0.76430803       0.53043789       0.79972895 </v>
    <v>       0.69742799       0.40449244       0.60212566 </v>
    <v>       0.60146113       0.20081285       0.79804768 </v>
    <v>       0.53438675       0.06808986       0.60134898 </v>
    <v>       0.33611255       0.66310478       0.00129102 </v>
    <v>       0.23219258       0.46775532       0.19864655 </v>
   </varray>
  </structure>
  <varray name="forces" >
   <v>      -0.13701345       0.32822033       0.15070895 </v>
   <v>      -0.02803205       0.09826275       0.07797628 </v>
   <v>       0.26846085       0.59308138      -0.61135649 </v>
   <v>       0.19670697       0.01358727       0.07431571 </v>
   <v>       0.44440738      -0.21600667      -0.52564657 </v>
   <v>      -0.34154092       0.12482173      -0.18164058 </v>
   <v>       0.08801598      -0.12364716       0.01237743 </v>
   <v>      -0.28074181      -0.15461694       0.20336341 </v>
   <v>      -0.03252210      -0.04482434       0.08821505 </v>
   <v>       0.13972805       0.32582804      -0.22819550 </v>
   <v>      -0.13603339      -0.03513391       0.26302751 </v>
   <v>       0.02488379       0.20055294      -0.22113617 </v>
   <v>      -0.38747691      -0.75014603       0.68011397 </v>
   <v>       0.09014393      -0.06985449      -0.01224608 </v>
   <v>      -0.12539608       0.00833593      -0.01348789 </v>
   <v>      -0.27860190      -0.04210541       0.06539996 </v>
   <v>      -0.19678756      -0.06168922       0.28620636 </v>
   <v>       0.24432165      -0.27500751      -0.14980488 </v>
   <v>       0.05723629       0.20937558       0.13665882 </v>
   <v>       0.29596173      -0.27658221       0.12015713 </v>
   <v>       0.20619284      -0.40810611       0.25816934 </v>
   <v>      -0.07938153      -0.00163174       0.29581700 </v>
   <v>       0.01293177       0.39275652      -0.86943441 </v>
   <v>       0.01080932      -0.05713224       0.27820114 </v>
   <v>       0.32869545       0.04457842      -0.35668609 </v>
   <v>      -0.16789172       0.22343105      -0.08972883 </v>
   <v>       0.07715978      -0.11390343      -0.20008870 </v>
   <v>      -0.11259684      -0.20611468       0.34878919 </v>
   <v>      -0.18163949       0.27367014       0.11995493 </v>
  </varray>
  <varray name="stress" >
   <v>      43.78443776       1.41161100       3.41911548 </v>
   <v>       1.41161095      42.53415898       4.54635202 </v>
   <v>       3.41911560       4.54635216      42.97065631 </v>
  </varray>
  <energy>
   <i name="e_fr_energy">   -335.05072597 </i>
   <i name="e_wo_entrp">   -335.04821837 </i>
   <i name="e_0_energy">     -0.00752282 </i>
  </energy>
  <time name="totalsc">  266.48  266.91</time>
 </calculation>
 <calculation>
  <scstep>
   <time name="dav">   18.46   18.48</time>
   <time name="total">   19.07   19.10</time>
   <energy>
    <i name="alphaZ">   1339.38729423 </i>
    <i name="ewald"> -11853.31380400 </i>
    <i name="hartreedc">  -2876.65896919 </i>
    <i name="XCdc">   -862.28206409 </i>
    <i name="pawpsdc">  22074.97785712 </i>
    <i name="pawaedc"> -20553.03713825 </i>
    <i name="eentropy">     -0.00740841 </i>
    <i name="bandstr">   -720.70121971 </i>
    <i name="atom">  13116.42875384 </i>
    <i name="e_fr_energy">   -335.20669847 </i>
    <i name="e_wo_entrp">   -335.19929005 </i>
    <i name="e_0_energy">   -335.20422900 </i>
   </energy>
  </scstep>
  <scstep>
   <time name="dav">   23.34   23.37</time>
   <time name="total">   23.96   23.99</time>
   <energy>
    <i name="e_fr_energy">   -335.52461390 </i>
    <i name="e_wo_entrp">   -335.51529745 </i>
    <i name="e_0_energy">   -335.52150841 </i>
   </energy>
  </scstep>
  <scstep>
   <time name="dav">   25.63   25.67</time>
   <time name="total">   26.25   26.28</time>
   <energy>
    <i name="e_fr_energy">   -335.54371666 </i>
    <i name="e_wo_entrp">   -335.53961044 </i>
    <i name="e_0_energy">   -335.54234792 </i>
   </energy>
  </scstep>
  <scstep>
   <time name="dav">   25.18   25.21</time>
   <time name="total">   25.80   25.84</time>
   <energy>
    <i name="e_fr_energy">   -335.42491369 </i>
    <i name="e_wo_entrp">   -335.41572255 </i>
    <i name="e_0_energy">   -335.42184998 </i>
   </energy>
  </scstep>
  <scstep>
   <time name="dav">   26.16   26.20</time>
   <time name="total">   26.78   26.82</time>
   <energy>
    <i name="e_fr_energy">   -335.41587464 </i>
    <i name="e_wo_entrp">   -335.40835791 </i>
    <i name="e_0_energy">   -335.41336906 </i>
   </energy>
  </scstep>
  <scstep>
   <time name="dav">   26.49   26.52</time>
   <time name="total">   27.10   27.14</time>
   <energy>
    <i name="e_fr_energy">   -335.40390666 </i>
    <i name="e_wo_entrp">   -335.39530508 </i>
    <i name="e_0_energy">   -335.40103947 </i>
   </energy>
  </scstep>
  <scstep>
   <time name="dav">   28.80   28.84</time>
   <time name="total">   29.45   29.49</time>
   <energy>
    <i name="e_fr_energy">   -335.39983535 </i>
    <i name="e_wo_entrp">   -335.39158173 </i>
    <i name="e_0_energy">   -335.39708414 </i>
   </energy>
  </scstep>
  <scstep>
   <time name="dav">   25.82   25.87</time>
   <time name="total">   26.44   26.51</time>
   <energy>
    <i name="e_fr_energy">   -335.39914909 </i>
    <i name="e_wo_entrp">   -335.39081397 </i>
    <i name="e_0_energy">   -335.39637072 </i>
   </energy>
  </scstep>
  <scstep>
   <time name="dav">   25.25   25.28</time>
   <time name="total">   25.87   25.89</time>
   <energy>
    <i name="e_fr_energy">   -335.39905233 </i>
    <i name="e_wo_entrp">   -335.39064439 </i>
    <i name="e_0_energy">   -335.39624968 </i>
   </energy>
  </scstep>
  <scstep>
   <time name="dav">   23.90   23.95</time>
   <time name="total">   24.52   24.58</time>
   <energy>
    <i name="e_fr_energy">   -335.39933302 </i>
    <i name="e_wo_entrp">   -335.39106505 </i>
    <i name="e_0_energy">   -335.39657703 </i>
   </energy>
  </scstep>
  <scstep>
   <time name="dav">   25.93   25.98</time>
   <time name="total">   26.55   26.60</time>
   <energy>
    <i name="e_fr_energy">   -335.39966794 </i>
    <i name="e_wo_entrp">   -335.39136636 </i>
    <i name="e_0_energy">   -335.39690075 </i>
   </energy>
  </scstep>
  <scstep>
   <time name="dav">   23.39   23.44</time>
   <time name="total">   24.02   24.06</time>
   <energy>
    <i name="e_fr_energy">   -335.39953887 </i>
    <i name="e_wo_entrp">   -335.39123203 </i>
    <i name="e_0_energy">   -335.39676992 </i>
   </energy>
  </scstep>
  <scstep>
   <time name="dav">   16.91   16.94</time>
   <time name="total">   16.95   16.99</time>
   <energy>
    <i name="alphaZ">   1339.38729423 </i>
    <i name="ewald"> -11853.31380400 </i>
    <i name="hartreedc">  -2900.07035524 </i>
    <i name="XCdc">   -861.53086689 </i>
    <i name="pawpsdc">  21552.95612825 </i>
    <i name="pawaedc"> -20031.57969231 </i>
    <i name="eentropy">     -0.00833691 </i>
    <i name="bandstr">   -697.66861507 </i>
    <i name="atom">  13116.42875384 </i>
    <i name="e_fr_energy">   -335.39949410 </i>
    <i name="e_wo_entrp">   -335.39115719 </i>
    <i name="e_0_energy">   -335.39671513 </i>
   </energy>
  </scstep>
  <structure>
   <crystal>
    <varray name="basis" >
     <v>      -3.19675266      -3.19604702      -3.20001915 </v>
     <v>       1.56420966       1.54571456      -7.91355295 </v>
     <v>       7.91806102      -7.91559761      -1.60070942 </v>
    </varray>
    <i name="volume">    479.20436887 </i>
    <varray name="rec_basis" >
     <v>      -0.13588094      -0.12553339      -0.05137832 </v>
     <v>       0.04218267       0.06355330      -0.10561403 </v>
     <v>       0.06310127      -0.06323643       0.00012108 </v>
    </varray>
   </crystal>
   <varray name="positions" >
    <v>       0.96296560       0.93315082       0.39729070 </v>
    <v>       0.63173131       0.26575845       0.39932839 </v>
    <v>       0.49289633       0.01348867      -0.00159002 </v>
    <v>      -0.00501078      -0.00076343       0.00169696 </v>
    <v>       0.09518220       0.20961819       0.80402097 </v>
    <v>       0.03827774       0.06762063       0.59552294 </v>
    <v>       0.90031117       0.79888151       0.20250725 </v>
    <v>       0.80633843       0.59282455       0.39814638 </v>
    <v>       0.73173347       0.46704894       0.19957642 </v>
    <v>       0.66091507       0.34092955      -0.00154542 </v>
    <v>       0.36862503       0.72865833       0.59904720 </v>
    <v>       0.13153393       0.27231712       0.39827115 </v>
    <v>       0.84384463       0.65041107       0.00362381 </v>
    <v>       0.92964000       0.86955185       0.80089323 </v>
    <v>       0.57111616       0.13310607       0.19805846 </v>
    <v>       0.40636907       0.79335580       0.19706225 </v>
    <v>       0.43976481       0.85843447       0.79727908 </v>
    <v>       0.30034858       0.60223152       0.40348383 </v>
    <v>       0.86135589       0.73302466       0.59913161 </v>
    <v>       0.46494380       0.93177866       0.40488890 </v>
    <v>       0.27076079       0.52935055       0.80369393 </v>
    <v>       0.20061722       0.39463016       0.59907930 </v>
    <v>       0.06418843       0.14575727       0.19893505 </v>
    <v>       0.76260507       0.52775934       0.79967036 </v>
    <v>       0.69497127       0.40874732       0.60393320 </v>
    <v>       0.60236392       0.20175861       0.79617070 </v>
    <v>       0.53541401       0.06943538       0.60251475 </v>
    <v>       0.33847087       0.65942977       0.00226431 </v>
    <v>       0.23105930       0.46837084       0.19704430 </v>
   </varray>
  </structure>
  <varray name="forces" >
   <v>      -0.19111199       0.22571507       0.07850122 </v>
   <v>      -0.00024929       0.04680538      -0.04476707 </v>
   <v>      -0.00741391       0.35364068      -0.09099172 </v>
   <v>       0.04369456       0.00725765       0.09813426 </v>
   <v>       0.03713320      -0.32824009      -0.04776862 </v>
   <v>      -0.01227211      -0.02301180      -0.13945011 </v>
   <v>      -0.09740788       0.02061052       0.01392293 </v>
   <v>      -0.00811667      -0.06949084      -0.06220954 </v>
   <v>       0.06566517      -0.15308850       0.07851993 </v>
   <v>       0.02246688       0.10495647       0.10380488 </v>
   <v>       0.08398445       0.00111276       0.08984794 </v>
   <v>       0.00382411       0.06743273      -0.01376383 </v>
   <v>      -0.25074864      -0.19926141       0.12086931 </v>
   <v>      -0.00204402      -0.20096294       0.10073254 </v>
   <v>       0.09895280      -0.06083663       0.01366166 </v>
   <v>       0.01298434       0.02679726      -0.18434470 </v>
   <v>       0.24180025      -0.03290453      -0.05947310 </v>
   <v>      -0.00149739      -0.09905281      -0.03383300 </v>
   <v>       0.03971166       0.11363218      -0.02639355 </v>
   <v>       0.06614849      -0.10217388       0.10739363 </v>
   <v>       0.22810063      -0.15025950       0.25298707 </v>
   <v>       0.04006170       0.00732399       0.09763993 </v>
   <v>      -0.15187384       0.29892048      -0.51529164 </v>
   <v>       0.07844972      -0.11111298      -0.22327391 </v>
   <v>      -0.12331096       0.07663758       0.11082454 </v>
   <v>      -0.07206384       0.06977704       0.04752339 </v>
   <v>      -0.05590483      -0.02413429       0.00357597 </v>
   <v>      -0.03949880       0.16664600       0.03846534 </v>
   <v>      -0.04946379      -0.03273557       0.08515625 </v>
  </varray>
  <varray name="stress" >
   <v>       9.35309741      -0.22089824       1.86119977 </v>
   <v>      -0.22089816      10.52397009       2.69627469 </v>
   <v>       1.86119973       2.69627472       9.86513464 </v>
  </varray>
  <energy>
   <i name="e_fr_energy">   -335.39949410 </i>
   <i name="e_wo_entrp">   -335.39671513 </i>
   <i name="e_0_energy">     -0.00833691 </i>
  </energy>
  <time name="totalsc">  340.64  341.22</time>
 </calculation>
 <calculation>
  <scstep>
   <time name="dav">   18.76   18.78</time>
   <time name="total">   19.39   19.41</time>
   <energy>
    <i name="alphaZ">   1334.10186104 </i>
    <i name="ewald"> -11847.63639305 </i>
    <i name="hartreedc">  -2886.37413677 </i>
    <i name="XCdc">   -862.07621033 </i>
    <i name="pawpsdc">  21552.88232730 </i>
    <i name="pawaedc"> -20031.54528819 </i>
    <i name="eentropy">     -0.00821779 </i>
    <i name="bandstr">   -711.17710147 </i>
    <i name="atom">  13116.42875384 </i>
    <i name="e_fr_energy">   -335.40440542 </i>
    <i name="e_wo_entrp">   -335.39618762 </i>
    <i name="e_0_energy">   -335.40166615 </i>
   </energy>
  </scstep>
  <scstep>
   <time name="dav">   23.72   23.75</time>
   <time name="total">   24.35   24.37</time>
   <energy>
    <i name="e_fr_energy">   -335.42532093 </i>
    <i name="e_wo_entrp">   -335.41660274 </i>
    <i name="e_0_energy">   -335.42241487 </i>
   </energy>
  </scstep>
  <scstep>
   <time name="dav">   25.65   25.67</time>
   <time name="total">   26.28   26.31</time>
   <energy>
    <i name="e_fr_energy">   -335.42363308 </i>
    <i name="e_wo_entrp">   -335.41609506 </i>
    <i name="e_0_energy">   -335.42112041 </i>
   </energy>
  </scstep>
  <scstep>
   <time name="dav">   24.62   24.65</time>
   <time name="total">   25.24   25.27</time>
   <energy>
    <i name="e_fr_energy">   -335.41656858 </i>
    <i name="e_wo_entrp">   -335.40781953 </i>
    <i name="e_0_energy">   -335.41365223 </i>
   </energy>
  </scstep>
  <scstep>
   <time name="dav">   25.88   25.91</time>
   <time name="total">   26.51   26.54</time>
   <energy>
    <i name="e_fr_energy">   -335.41634173 </i>
    <i name="e_wo_entrp">   -335.40818489 </i>
    <i name="e_0_energy">   -335.41362278 </i>
   </energy>
  </scstep>
  <scstep>
   <time name="dav">   25.94   25.96</time>
   <time name="total">   26.57   26.60</time>
   <energy>
    <i name="e_fr_energy">   -335.41541079 </i>
    <i name="e_wo_entrp">   -335.40689576 </i>
    <i name="e_0_energy">   -335.41257245 </i>
   </energy>
  </scstep>
  <scstep>
   <time name="dav">   25.31   25.33</time>
   <time name="total">   25.93   25.96</time>
   <energy>
    <i name="e_fr_energy">   -335.41512346 </i>
    <i name="e_wo_entrp">   -335.40673573 </i>
    <i name="e_0_energy">   -335.41232755 </i>
   </energy>
  </scstep>
  <scstep>
   <time name="dav">   22.42   22.44</time>
   <time name="total">   23.04   23.07</time>
   <energy>
    <i name="e_fr_energy">   -335.41507009 </i>
    <i name="e_wo_entrp">   -335.40666264 </i>
    <i name="e_0_energy">   -335.41226760 </i>
   </energy>
  </scstep>
  <scstep>
   <time name="dav">   16.64   16.66</time>
   <time name="total">   16.67   16.70</time>
   <energy>
    <i name="alphaZ">   1334.10186104 </i>
    <i name="ewald"> -11847.63639305 </i>
    <i name="hartreedc">  -2893.07606033 </i>
    <i name="XCdc">   -861.86321903 </i>
    <i name="pawpsdc">  21428.51272493 </i>
    <i name="pawaedc"> -19907.02665520 </i>
    <i name="eentropy">     -0.00843528 </i>
    <i name="bandstr">   -704.84763889 </i>
    <i name="atom">  13116.42875384 </i>
    <i name="e_fr_energy">   -335.41506198 </i>
    <i name="e_wo_entrp">   -335.40662670 </i>
    <i name="e_0_energy">   -335.41225022 </i>
   </energy>
  </scstep>
  <structure>
   <crystal>
    <varray name="basis" >
     <v>      -3.20415516      -3.20335981      -3.20807844 </v>
     <v>       1.56297085       1.54209970      -7.92148465 </v>
     <v>       7.92655082      -7.92395748      -1.60464486 </v>
    </varray>
    <i name="volume">    481.10287658 </i>
    <varray name="rec_basis" >
     <v>      -0.13561347      -0.12529968      -0.05115007 </v>
     <v>       0.04215402       0.06354260      -0.10555161 </v>
     <v>       0.06302715      -0.06317942       0.00013642 </v>
    </varray>
   </crystal>
   <varray name="positions" >
    <v>       0.96245542       0.93312880       0.39688436 </v>
    <v>       0.63151353       0.26565046       0.39922482 </v>
    <v>       0.49181763       0.01537742      -0.00184427 </v>
    <v>      -0.00566389      -0.00083754       0.00192248 </v>
    <v>       0.09465292       0.21087733       0.80461469 </v>
    <v>       0.03895743       0.06777459       0.59493248 </v>
    <v>       0.90035628       0.79874133       0.20282471 </v>
    <v>       0.80719667       0.59189350       0.39792091 </v>
    <v>       0.73159181       0.46703146       0.19953570 </v>
    <v>       0.66011273       0.34193710      -0.00175698 </v>
    <v>       0.36886969       0.72801933       0.59892178 </v>
    <v>       0.13127186       0.27306420       0.39804361 </v>
    <v>       0.84541378       0.64813890       0.00410000 </v>
    <v>       0.92924539       0.86985540       0.80102863 </v>
    <v>       0.57164583       0.13306839       0.19782089 </v>
    <v>       0.40719912       0.79257289       0.19669437 </v>
    <v>       0.44051701       0.85739637       0.79696120 </v>
    <v>       0.30042128       0.60250029       0.40398490 </v>
    <v>       0.86063409       0.73299828       0.59900056 </v>
    <v>       0.46471730       0.93154036       0.40555074 </v>
    <v>       0.27122712       0.52874572       0.80424320 </v>
    <v>       0.20066632       0.39392325       0.59896349 </v>
    <v>       0.06389838       0.14755067       0.19872069 </v>
    <v>       0.76215364       0.52704032       0.79965505 </v>
    <v>       0.69431148       0.40988946       0.60441694 </v>
    <v>       0.60260391       0.20201292       0.79566757 </v>
    <v>       0.53568650       0.06979628       0.60282697 </v>
    <v>       0.33910354       0.65844265       0.00252569 </v>
    <v>       0.23075656       0.46853657       0.19661483 </v>
   </varray>
  </structure>
  <varray name="forces" >
   <v>      -0.19694961       0.19060168       0.05336577 </v>
   <v>       0.00250615       0.03570585      -0.08184196 </v>
   <v>      -0.07044575       0.29568513       0.03441099 </v>
   <v>       0.00801170       0.00450658       0.09657825 </v>
   <v>      -0.06620642      -0.35656159       0.07452887 </v>
   <v>       0.07365756      -0.05756067      -0.12840582 </v>
   <v>      -0.14333314       0.05931499       0.01324707 </v>
   <v>       0.06727707      -0.04263800      -0.14009255 </v>
   <v>       0.09451543      -0.18216315       0.07463779 </v>
   <v>      -0.00645808       0.03936440       0.19683148 </v>
   <v>       0.14655809       0.01672996       0.03387931 </v>
   <v>      -0.00139952       0.02784224       0.03906768 </v>
   <v>      -0.19537658      -0.09398063      -0.00237640 </v>
   <v>      -0.03782535      -0.22527900       0.13210641 </v>
   <v>       0.14367250      -0.06798817       0.02294313 </v>
   <v>       0.06781731       0.03171516      -0.24410223 </v>
   <v>       0.32860417      -0.00828932      -0.13618338 </v>
   <v>      -0.05229805      -0.05784370       0.02101364 </v>
   <v>       0.03151241       0.08875217      -0.06927538 </v>
   <v>       0.00857595      -0.06031262       0.10686898 </v>
   <v>       0.22288986      -0.08188194       0.24522486 </v>
   <v>       0.07699400       0.00819767       0.04653553 </v>
   <v>      -0.18688886       0.28281074      -0.42719245 </v>
   <v>       0.10075547      -0.12232746      -0.36670583 </v>
   <v>      -0.24378833       0.08516813       0.23726719 </v>
   <v>      -0.04158706       0.02778579       0.07966323 </v>
   <v>      -0.09403124       0.00308383       0.05896288 </v>
   <v>      -0.01850686       0.27219059      -0.04542917 </v>
   <v>      -0.01825284      -0.11262869       0.07447212 </v>
  </varray>
  <varray name="stress" >
   <v>       1.61107127      -0.54667323       1.40307397 </v>
   <v>      -0.54667308       3.42254021       2.19815124 </v>
   <v>       1.40307381       2.19815119       2.36345202 </v>
  </varray>
  <energy>
   <i name="e_fr_energy">   -335.41506198 </i>
   <i name="e_wo_entrp">   -335.41225022 </i>
   <i name="e_0_energy">     -0.00843528 </i>
  </energy>
  <time name="totalsc">  231.92  232.19</time>
 </calculation>
 <calculation>
  <scstep>
   <time name="dav">   19.04   19.06</time>
   <time name="total">   19.66   19.68</time>
   <energy>
    <i name="alphaZ">   1331.05785631 </i>
    <i name="ewald"> -11839.46561197 </i>
    <i name="hartreedc">  -2890.29077216 </i>
    <i name="XCdc">   -862.16239023 </i>
    <i name="pawpsdc">  21426.87665465 </i>
    <i name="pawaedc"> -19905.54181070 </i>
    <i name="eentropy">     -0.00899624 </i>
    <i name="bandstr">   -712.33671076 </i>
    <i name="atom">  13116.42875384 </i>
    <i name="e_fr_energy">   -335.44302725 </i>
    <i name="e_wo_entrp">   -335.43403101 </i>
    <i name="e_0_energy">   -335.44002851 </i>
   </energy>
  </scstep>
  <scstep>
   <time name="dav">   24.59   24.61</time>
   <time name="total">   25.21   25.23</time>
   <energy>
    <i name="e_fr_energy">   -335.45725062 </i>
    <i name="e_wo_entrp">   -335.44811523 </i>
    <i name="e_0_energy">   -335.45420549 </i>
   </energy>
  </scstep>
  <scstep>
   <time name="dav">   25.21   25.24</time>
   <time name="total">   25.84   25.87</time>
   <energy>
    <i name="e_fr_energy">   -335.45760890 </i>
    <i name="e_wo_entrp">   -335.44889548 </i>
    <i name="e_0_energy">   -335.45470442 </i>
   </energy>
  </scstep>
  <scstep>
   <time name="dav">   25.38   25.40</time>
   <time name="total">   26.00   26.02</time>
   <energy>
    <i name="e_fr_energy">   -335.45422661 </i>
    <i name="e_wo_entrp">   -335.44523348 </i>
    <i name="e_0_energy">   -335.45122890 </i>
   </energy>
  </scstep>
  <scstep>
   <time name="dav">   25.35   25.37</time>
   <time name="total">   25.97   25.99</time>
   <energy>
    <i name="e_fr_energy">   -335.45470133 </i>
    <i name="e_wo_entrp">   -335.44572052 </i>
    <i name="e_0_energy">   -335.45170773 </i>
   </energy>
  </scstep>
  <scstep>
   <time name="dav">   25.25   25.27</time>
   <time name="total">   25.89   25.92</time>
   <energy>
    <i name="e_fr_energy">   -335.45392804 </i>
    <i name="e_wo_entrp">   -335.44500967 </i>
    <i name="e_0_energy">   -335.45095525 </i>
   </energy>
  </scstep>
  <scstep>
   <time name="dav">   22.57   22.59</time>
   <time name="total">   23.19   23.21</time>
   <energy>
    <i name="e_fr_energy">   -335.45385172 </i>
    <i name="e_wo_entrp">   -335.44483231 </i>
    <i name="e_0_energy">   -335.45084525 </i>
   </energy>
  </scstep>
  <scstep>
   <time name="dav">   16.98   17.00</time>
   <time name="total">   17.01   17.03</time>
   <energy>
    <i name="alphaZ">   1331.05785631 </i>
    <i name="ewald"> -11839.46561197 </i>
    <i name="hartreedc">  -2894.27166335 </i>
    <i name="XCdc">   -862.04200685 </i>
    <i name="pawpsdc">  21338.14425190 </i>
    <i name="pawaedc"> -19816.67488000 </i>
    <i name="eentropy">     -0.00893690 </i>
    <i name="bandstr">   -708.62158099 </i>
    <i name="atom">  13116.42875384 </i>
    <i name="e_fr_energy">   -335.45381801 </i>
    <i name="e_wo_entrp">   -335.44488111 </i>
    <i name="e_0_energy">   -335.45083904 </i>
   </energy>
  </scstep>
  <structure>
   <crystal>
    <varray name="basis" >
     <v>      -3.20676540      -3.20831574      -3.21387671 </v>
     <v>       1.56024924       1.53825643      -7.92559203 </v>
     <v>       7.93116709      -7.93423259      -1.60768745 </v>
    </varray>
    <i name="volume">    482.20311383 </i>
    <varray name="rec_basis" >
     <v>      -0.13553734      -0.12515639      -0.05097344 </v>
     <v>       0.04218487       0.06355262      -0.10553418 </v>
     <v>       0.06298501      -0.06310611       0.00015127 </v>
    </varray>
   </crystal>
   <varray name="positions" >
    <v>       0.96243197       0.93307812       0.39619911 </v>
    <v>       0.63148534       0.26594425       0.39916220 </v>
    <v>       0.49096725       0.01580539      -0.00248556 </v>
    <v>      -0.00587641      -0.00110143       0.00194037 </v>
    <v>       0.09598044       0.21003640       0.80514419 </v>
    <v>       0.03909522       0.06813582       0.59512679 </v>
    <v>       0.90066647       0.79863436       0.20249364 </v>
    <v>       0.80733259       0.59225113       0.39809731 </v>
    <v>       0.73175279       0.46661015       0.20000859 </v>
    <v>       0.65968778       0.34148464      -0.00184575 </v>
    <v>       0.36823799       0.72808620       0.59913781 </v>
    <v>       0.13111445       0.27303688       0.39798189 </v>
[...]
       <r>    4.6560    1.0000 </r>
       <r>    4.7310    1.0000 </r>
       <r>    4.7753    1.0000 </r>
       <r>    4.7892    1.0000 </r>
       <r>    4.8325    1.0000 </r>
       <r>    4.8945    1.0000 </r>
       <r>    4.9762    1.0000 </r>
       <r>    5.0415    1.0000 </r>
       <r>    5.0813    1.0000 </r>
       <r>    5.1157    1.0000 </r>
       <r>    5.1754    1.0000 </r>
       <r>    5.2406    1.0000 </r>
       <r>    5.2862    1.0000 </r>
       <r>    5.3672    1.0000 </r>
       <r>    5.4197    1.0000 </r>
       <r>    5.4706    1.0000 </r>
       <r>    5.5077    1.0000 </r>
       <r>    5.6047    1.0000 </r>
       <r>    5.6733    1.0000 </r>
       <r>    5.7298    1.0000 </r>
       <r>    5.7914    1.0000 </r>
       <r>    5.8311    1.0000 </r>
       <r>    5.8857    1.0000 </r>
       <r>    5.9346    1.0000 </r>
       <r>    5.9784    1.0000 </r>
       <r>    6.0470    1.0000 </r>
       <r>    6.0745    1.0000 </r>
       <r>    6.1319    1.0000 </r>
       <r>    6.2022    1.0000 </r>
       <r>    6.2480    1.0001 </r>
       <r>    6.2856    1.0002 </r>
       <r>    6.3329    1.0006 </r>
       <r>    6.4010    1.0027 </r>
       <r>    6.4276    1.0044 </r>
       <r>    6.4644    1.0083 </r>
       <r>    6.5155    1.0172 </r>
       <r>    6.5965    1.0341 </r>
       <r>    6.6461    1.0315 </r>
       <r>    6.7793    0.8185 </r>
       <r>    6.7991    0.7515 </r>
       <r>    6.8310    0.6288 </r>
       <r>    6.9456    0.1775 </r>
       <r>    7.1542   -0.0293 </r>
       <r>    7.2354   -0.0120 </r>
       <r>    7.3304   -0.0023 </r>
       <r>    7.3902   -0.0006 </r>
       <r>    7.4879   -0.0000 </r>
       <r>    7.5556   -0.0000 </r>
       <r>    7.8115   -0.0000 </r>
       <r>    7.8583   -0.0000 </r>
       <r>    8.0272   -0.0000 </r>
       <r>    8.1061   -0.0000 </r>
       <r>    8.1802   -0.0000 </r>
       <r>    8.3471   -0.0000 </r>
       <r>    8.5847   -0.0000 </r>
       <r>    8.7290   -0.0000 </r>
       <r>    8.8002   -0.0000 </r>
       <r>    8.8844   -0.0000 </r>
       <r>    8.9433   -0.0000 </r>
       <r>    9.0235   -0.0000 </r>
       <r>    9.0819   -0.0000 </r>
      </set>
     </set>
    </set>
   </array>
  </eigenvalues>
  <separator name="orbital magnetization" >
   <v name="MAGDIPOLOUT">      0.00000000      0.00000000      0.00000000</v>
  </separator>
  <dos>
   <i name="efermi">      6.86180807 </i>
   <total>
    <array>
     <dimension dim="1">gridpoints</dimension>
     <dimension dim="2">spin</dimension>
     <field>energy</field>
     <field>total</field>
     <field>integrated</field>
     <set>
      <set comment="spin 1">
       <r>   -50.1135     0.0000     0.0000 </r>
       <r>   -49.9059     0.0000     0.0000 </r>
       <r>   -49.6984     0.0000     0.0000 </r>
       <r>   -49.4909     0.0000     0.0000 </r>
       <r>   -49.2833     0.0000     0.0000 </r>
       <r>   -49.0758    -0.0000    -0.0000 </r>
       <r>   -48.8683    -0.0000    -0.0000 </r>
       <r>   -48.6607    -0.0000    -0.0000 </r>
       <r>   -48.4532    -0.0000    -0.0000 </r>
       <r>   -48.2457    -0.0000    -0.0000 </r>
       <r>   -48.0381    -0.0000    -0.0000 </r>
       <r>   -47.8306    -0.0042    -0.0009 </r>
       <r>   -47.6230    -0.3076    -0.0647 </r>
       <r>   -47.4155    -0.3815    -0.1439 </r>
       <r>   -47.2080    20.5028     4.1112 </r>
       <r>   -47.0004    32.9080    10.9408 </r>
       <r>   -46.7929     6.0651    12.1995 </r>
       <r>   -46.5854    -0.9115    12.0104 </r>
       <r>   -46.3778    -0.0498    12.0000 </r>
       <r>   -46.1703    -0.0002    12.0000 </r>
       <r>   -45.9628    -0.0000    12.0000 </r>
       <r>   -45.7552    -0.0000    12.0000 </r>
       <r>   -45.5477     0.0000    12.0000 </r>
       <r>   -45.3401     0.0000    12.0000 </r>
       <r>   -45.1326     0.0000    12.0000 </r>
       <r>   -44.9251     0.0000    12.0000 </r>
       <r>   -44.7175     0.0000    12.0000 </r>
       <r>   -44.5100     0.0000    12.0000 </r>
       <r>   -44.3025     0.0000    12.0000 </r>
       <r>   -44.0949     0.0000    12.0000 </r>
       <r>   -43.8874     0.0000    12.0000 </r>
       <r>   -43.6798     0.0000    12.0000 </r>
       <r>   -43.4723     0.0000    12.0000 </r>
       <r>   -43.2648     0.0000    12.0000 </r>
       <r>   -43.0572     0.0000    12.0000 </r>
       <r>   -42.8497     0.0000    12.0000 </r>
       <r>   -42.6422     0.0000    12.0000 </r>
       <r>   -42.4346     0.0000    12.0000 </r>
       <r>   -42.2271     0.0000    12.0000 </r>
       <r>   -42.0196     0.0000    12.0000 </r>
       <r>   -41.8120     0.0000    12.0000 </r>
       <r>   -41.6045     0.0000    12.0000 </r>
       <r>   -41.3969     0.0000    12.0000 </r>
       <r>   -41.1894     0.0000    12.0000 </r>
       <r>   -40.9819     0.0000    12.0000 </r>
       <r>   -40.7743     0.0000    12.0000 </r>
       <r>   -40.5668     0.0000    12.0000 </r>
       <r>   -40.3593     0.0000    12.0000 </r>
       <r>   -40.1517     0.0000    12.0000 </r>
       <r>   -39.9442     0.0000    12.0000 </r>
       <r>   -39.7367     0.0000    12.0000 </r>
       <r>   -39.5291     0.0000    12.0000 </r>
       <r>   -39.3216     0.0000    12.0000 </r>
       <r>   -39.1140     0.0000    12.0000 </r>
       <r>   -38.9065     0.0000    12.0000 </r>
       <r>   -38.6990     0.0000    12.0000 </r>
       <r>   -38.4914     0.0000    12.0000 </r>
       <r>   -38.2839     0.0000    12.0000 </r>
       <r>   -38.0764     0.0000    12.0000 </r>
       <r>   -37.8688     0.0000    12.0000 </r>
       <r>   -37.6613     0.0000    12.0000 </r>
       <r>   -37.4537     0.0000    12.0000 </r>
       <r>   -37.2462     0.0000    12.0000 </r>
       <r>   -37.0387     0.0000    12.0000 </r>
       <r>   -36.8311     0.0000    12.0000 </r>
       <r>   -36.6236     0.0000    12.0000 </r>
       <r>   -36.4161     0.0000    12.0000 </r>
       <r>   -36.2085     0.0000    12.0000 </r>
       <r>   -36.0010     0.0000    12.0000 </r>
       <r>   -35.7935     0.0000    12.0000 </r>
       <r>   -35.5859     0.0000    12.0000 </r>
       <r>   -35.3784     0.0000    12.0000 </r>
       <r>   -35.1708     0.0000    12.0000 </r>
       <r>   -34.9633     0.0000    12.0000 </r>
       <r>   -34.7558     0.0000    12.0000 </r>
       <r>   -34.5482     0.0000    12.0000 </r>
       <r>   -34.3407     0.0000    12.0000 </r>
       <r>   -34.1332     0.0000    12.0000 </r>
       <r>   -33.9256     0.0000    12.0000 </r>
       <r>   -33.7181     0.0000    12.0000 </r>
       <r>   -33.5106     0.0000    12.0000 </r>
       <r>   -33.3030     0.0000    12.0000 </r>
       <r>   -33.0955     0.0000    12.0000 </r>
       <r>   -32.8879     0.0000    12.0000 </r>
       <r>   -32.6804     0.0000    12.0000 </r>
       <r>   -32.4729     0.0000    12.0000 </r>
       <r>   -32.2653     0.0000    12.0000 </r>
       <r>   -32.0578     0.0000    12.0000 </r>
       <r>   -31.8503     0.0000    12.0000 </r>
       <r>   -31.6427     0.0000    12.0000 </r>
       <r>   -31.4352     0.0000    12.0000 </r>
       <r>   -31.2276     0.0000    12.0000 </r>
       <r>   -31.0201     0.0000    12.0000 </r>
       <r>   -30.8126     0.0000    12.0000 </r>
       <r>   -30.6050     0.0000    12.0000 </r>
       <r>   -30.3975     0.0000    12.0000 </r>
       <r>   -30.1900     0.0000    12.0000 </r>
       <r>   -29.9824     0.0000    12.0000 </r>
       <r>   -29.7749     0.0000    12.0000 </r>
       <r>   -29.5674     0.0000    12.0000 </r>
       <r>   -29.3598     0.0000    12.0000 </r>
       <r>   -29.1523     0.0000    12.0000 </r>
       <r>   -28.9447     0.0000    12.0000 </r>
       <r>   -28.7372     0.0000    12.0000 </r>
       <r>   -28.5297     0.0000    12.0000 </r>
       <r>   -28.3221     0.0000    12.0000 </r>
       <r>   -28.1146     0.0000    12.0000 </r>
       <r>   -27.9071     0.0000    12.0000 </r>
       <r>   -27.6995     0.0000    12.0000 </r>
       <r>   -27.4920     0.0000    12.0000 </r>
       <r>   -27.2845     0.0000    12.0000 </r>
       <r>   -27.0769     0.0000    12.0000 </r>
       <r>   -26.8694     0.0000    12.0000 </r>
       <r>   -26.6618     0.0000    12.0000 </r>
       <r>   -26.4543     0.0000    12.0000 </r>
       <r>   -26.2468     0.0000    12.0000 </r>
       <r>   -26.0392     0.0000    12.0000 </r>
       <r>   -25.8317     0.0000    12.0000 </r>
       <r>   -25.6242    -0.0000    12.0000 </r>
       <r>   -25.4166    -0.0000    12.0000 </r>
       <r>   -25.2091    -0.0000    12.0000 </r>
       <r>   -25.0015    -0.0000    12.0000 </r>
       <r>   -24.7940    -0.0000    12.0000 </r>
       <r>   -24.5865    -0.0001    12.0000 </r>
       <r>   -24.3789    -0.0118    11.9975 </r>
       <r>   -24.1714    -0.2081    11.9543 </r>
       <r>   -23.9639     0.7602    12.1121 </r>
       <r>   -23.7563     9.5147    14.0868 </r>
       <r>   -23.5488    23.6866    19.0026 </r>
       <r>   -23.3413    50.1547    29.4115 </r>
       <r>   -23.1337    51.5097    40.1017 </r>
       <r>   -22.9262    25.0132    45.2929 </r>
       <r>   -22.7186    12.5559    47.8987 </r>
       <r>   -22.5111     0.7338    48.0510 </r>
       <r>   -22.3036    -0.2308    48.0031 </r>
       <r>   -22.0960    -0.0147    48.0000 </r>
       <r>   -21.8885    -0.0001    48.0000 </r>
       <r>   -21.6810    -0.0000    48.0000 </r>
       <r>   -21.4734    -0.0000    48.0000 </r>
       <r>   -21.2659     0.0000    48.0000 </r>
       <r>   -21.0584     0.0000    48.0000 </r>
       <r>   -20.8508     0.0000    48.0000 </r>
       <r>   -20.6433     0.0000    48.0000 </r>
       <r>   -20.4357     0.0000    48.0000 </r>
       <r>   -20.2282     0.0000    48.0000 </r>
       <r>   -20.0207     0.0000    48.0000 </r>
       <r>   -19.8131     0.0000    48.0000 </r>
       <r>   -19.6056     0.0000    48.0000 </r>
       <r>   -19.3981     0.0000    48.0000 </r>
       <r>   -19.1905     0.0000    48.0000 </r>
       <r>   -18.9830     0.0000    48.0000 </r>
       <r>   -18.7754     0.0000    48.0000 </r>
       <r>   -18.5679     0.0000    48.0000 </r>
       <r>   -18.3604     0.0000    48.0000 </r>
       <r>   -18.1528     0.0000    48.0000 </r>
       <r>   -17.9453     0.0000    48.0000 </r>
       <r>   -17.7378     0.0000    48.0000 </r>
       <r>   -17.5302     0.0000    48.0000 </r>
       <r>   -17.3227     0.0000    48.0000 </r>
       <r>   -17.1152     0.0000    48.0000 </r>
       <r>   -16.9076     0.0000    48.0000 </r>
       <r>   -16.7001     0.0000    48.0000 </r>
       <r>   -16.4925     0.0000    48.0000 </r>
       <r>   -16.2850     0.0000    48.0000 </r>
       <r>   -16.0775     0.0000    48.0000 </r>
       <r>   -15.8699     0.0000    48.0000 </r>
       <r>   -15.6624     0.0000    48.0000 </r>
       <r>   -15.4549     0.0000    48.0000 </r>
       <r>   -15.2473     0.0000    48.0000 </r>
       <r>   -15.0398     0.0000    48.0000 </r>
       <r>   -14.8323     0.0000    48.0000 </r>
       <r>   -14.6247     0.0000    48.0000 </r>
       <r>   -14.4172     0.0000    48.0000 </r>
       <r>   -14.2096     0.0000    48.0000 </r>
       <r>   -14.0021     0.0000    48.0000 </r>
       <r>   -13.7946     0.0000    48.0000 </r>
       <r>   -13.5870     0.0000    48.0000 </r>
       <r>   -13.3795     0.0000    48.0000 </r>
       <r>   -13.1720     0.0000    48.0000 </r>
       <r>   -12.9644     0.0000    48.0000 </r>
       <r>   -12.7569     0.0000    48.0000 </r>
       <r>   -12.5493     0.0000    48.0000 </r>
       <r>   -12.3418     0.0000    48.0000 </r>
       <r>   -12.1343     0.0000    48.0000 </r>
       <r>   -11.9267     0.0000    48.0000 </r>
       <r>   -11.7192     0.0000    48.0000 </r>
       <r>   -11.5117     0.0000    48.0000 </r>
       <r>   -11.3041     0.0000    48.0000 </r>
       <r>   -11.0966     0.0000    48.0000 </r>
       <r>   -10.8891     0.0000    48.0000 </r>
       <r>   -10.6815     0.0000    48.0000 </r>
       <r>   -10.4740     0.0000    48.0000 </r>
       <r>   -10.2664     0.0000    48.0000 </r>
       <r>   -10.0589     0.0000    48.0000 </r>
       <r>    -9.8514     0.0000    48.0000 </r>
       <r>    -9.6438     0.0000    48.0000 </r>
       <r>    -9.4363     0.0000    48.0000 </r>
       <r>    -9.2288     0.0000    48.0000 </r>
       <r>    -9.0212     0.0000    48.0000 </r>
       <r>    -8.8137     0.0000    48.0000 </r>
       <r>    -8.6062     0.0000    48.0000 </r>
       <r>    -8.3986     0.0000    48.0000 </r>
       <r>    -8.1911     0.0000    48.0000 </r>
       <r>    -7.9835     0.0000    48.0000 </r>
       <r>    -7.7760     0.0000    48.0000 </r>
       <r>    -7.5685     0.0000    48.0000 </r>
       <r>    -7.3609     0.0000    48.0000 </r>
       <r>    -7.1534     0.0000    48.0000 </r>
       <r>    -6.9459     0.0000    48.0000 </r>
       <r>    -6.7383     0.0000    48.0000 </r>
       <r>    -6.5308     0.0000    48.0000 </r>
       <r>    -6.3232     0.0000    48.0000 </r>
       <r>    -6.1157     0.0000    48.0000 </r>
       <r>    -5.9082     0.0000    48.0000 </r>
       <r>    -5.7006     0.0000    48.0000 </r>
       <r>    -5.4931     0.0000    48.0000 </r>
       <r>    -5.2856     0.0000    48.0000 </r>
       <r>    -5.0780     0.0000    48.0000 </r>
       <r>    -4.8705     0.0000    48.0000 </r>
       <r>    -4.6630     0.0000    48.0000 </r>
       <r>    -4.4554     0.0000    48.0000 </r>
       <r>    -4.2479     0.0000    48.0000 </r>
       <r>    -4.0403     0.0000    48.0000 </r>
       <r>    -3.8328     0.0000    48.0000 </r>
       <r>    -3.6253     0.0000    48.0000 </r>
       <r>    -3.4177     0.0000    48.0000 </r>
       <r>    -3.2102     0.0000    48.0000 </r>
       <r>    -3.0027     0.0000    48.0000 </r>
       <r>    -2.7951     0.0000    48.0000 </r>
       <r>    -2.5876     0.0000    48.0000 </r>
       <r>    -2.3801     0.0000    48.0000 </r>
       <r>    -2.1725    -0.0000    48.0000 </r>
       <r>    -1.9650    -0.0000    48.0000 </r>
       <r>    -1.7574    -0.0000    48.0000 </r>
       <r>    -1.5499    -0.0000    48.0000 </r>
       <r>    -1.3424    -0.0000    48.0000 </r>
       <r>    -1.1348    -0.0000    48.0000 </r>
       <r>    -0.9273    -0.0011    47.9998 </r>
       <r>    -0.7198    -0.0130    47.9971 </r>
       <r>    -0.5122     0.0818    48.0141 </r>
       <r>    -0.3047     0.5748    48.1333 </r>
       <r>    -0.0971     1.2474    48.3922 </r>
       <r>     0.1104     1.8365    48.7734 </r>
       <r>     0.3179     1.5634    49.0978 </r>
       <r>     0.5255     1.8593    49.4837 </r>
       <r>     0.7330     3.0906    50.1251 </r>
       <r>     0.9405     3.1553    50.7800 </r>
       <r>     1.1481     2.8428    51.3699 </r>
       <r>     1.3556     3.2004    52.0342 </r>
       <r>     1.5631     4.5295    52.9742 </r>
       <r>     1.7707     3.6619    53.7342 </r>
       <r>     1.9782     5.2247    54.8185 </r>
       <r>     2.1858     8.3252    56.5463 </r>
       <r>     2.3933    11.7914    58.9934 </r>
       <r>     2.6008    16.0361    62.3215 </r>
       <r>     2.8084    18.7876    66.2206 </r>
       <r>     3.0159    22.6192    70.9149 </r>
       <r>     3.2234    27.7190    76.6676 </r>
       <r>     3.4310    28.8678    82.6588 </r>
       <r>     3.6385    29.0813    88.6942 </r>
       <r>     3.8460    30.4444    95.0125 </r>
       <r>     4.0536    31.0340   101.4532 </r>
       <r>     4.2611    28.1330   107.2918 </r>
       <r>     4.4687    23.7937   112.2299 </r>
       <r>     4.6762    27.9040   118.0210 </r>
       <r>     4.8837    36.7427   125.6465 </r>
       <r>     5.0913    39.7073   133.8872 </r>
       <r>     5.2988    40.5780   142.3086 </r>
       <r>     5.5063    36.9966   149.9868 </r>
       <r>     5.7139    36.1286   157.4848 </r>
       <r>     5.9214    36.9830   165.1601 </r>
       <r>     6.1290    38.9068   173.2347 </r>
       <r>     6.3365    39.7508   181.4844 </r>
       <r>     6.5440    38.8362   189.5444 </r>
       <r>     6.7516    33.9277   196.5856 </r>
       <r>     6.9591    30.0389   202.8198 </r>
       <r>     7.1666    24.0438   207.8098 </r>
       <r>     7.3742    18.3101   211.6098 </r>
       <r>     7.5817    17.0033   215.1386 </r>
       <r>     7.7892    16.5969   218.5831 </r>
       <r>     7.9968    16.6049   222.0292 </r>
       <r>     8.2043    19.0623   225.9853 </r>
       <r>     8.4119    20.8632   230.3152 </r>
       <r>     8.6194    19.6140   234.3858 </r>
       <r>     8.8269    14.6263   237.4213 </r>
       <r>     9.0345     8.7474   239.2367 </r>
       <r>     9.2420     3.2625   239.9138 </r>
       <r>     9.4495     0.4807   240.0136 </r>
       <r>     9.6571    -0.0564   240.0018 </r>
       <r>     9.8646    -0.0088   240.0000 </r>
       <r>    10.0721    -0.0001   240.0000 </r>
       <r>    10.2797    -0.0000   240.0000 </r>
       <r>    10.4872    -0.0000   240.0000 </r>
       <r>    10.6948    -0.0000   240.0000 </r>
       <r>    10.9023     0.0000   240.0000 </r>
       <r>    11.1098     0.0000   240.0000 </r>
       <r>    11.3174     0.0000   240.0000 </r>
       <r>    11.5249     0.0000   240.0000 </r>
       <r>    11.7324     0.0000   240.0000 </r>
       <r>    11.9400     0.0000   240.0000 </r>
       <r>    12.1475     0.0000   240.0000 </r>
      </set>
     </set>
    </array>
   </total>
  </dos>
 </calculation>
 <structure name="finalpos" >
  <crystal>
   <varray name="basis" >
    <v>      -3.19745507      -3.21885345      -3.21962143 </v>
    <v>       1.56248540       1.50659802      -7.90985632 </v>
    <v>       7.93243302      -7.95309636      -1.64187721 </v>
   </varray>
   <i name="volume">    481.24836822 </i>
   <varray name="rec_basis" >
    <v>      -0.13585812      -0.12504769      -0.05065489 </v>
    <v>       0.04222559       0.06397790      -0.10589752 </v>
    <v>       0.06298482      -0.06300701       0.00044080 </v>
   </varray>
  </crystal>
  <varray name="positions" >
   <v>       0.96529827       0.93588211       0.39139887 </v>
   <v>       0.63284425       0.26714396       0.39954132 </v>
   <v>       0.48792751       0.01627034      -0.00438525 </v>
   <v>      -0.00834834      -0.00230882       0.00082768 </v>
   <v>       0.09730122       0.20699121       0.80753198 </v>
   <v>       0.04046153       0.06729612       0.59477627 </v>
   <v>       0.90208645       0.79960909       0.20091837 </v>
   <v>       0.80834957       0.59448339       0.39989393 </v>
   <v>       0.72981887       0.46912214       0.20185694 </v>
   <v>       0.65374996       0.34019928      -0.00216806 </v>
   <v>       0.36588134       0.72730678       0.60077179 </v>
   <v>       0.13212796       0.27439187       0.39765586 </v>
   <v>       0.84940656       0.64310083       0.00505594 </v>
   <v>       0.93143607       0.86420893       0.80202726 </v>
   <v>       0.57212113       0.13358777       0.19897516 </v>
   <v>       0.40677471       0.79782055       0.19601311 </v>
   <v>       0.43744993       0.85799037       0.79857435 </v>
   <v>       0.30187703       0.60348926       0.40498064 </v>
   <v>       0.85769754       0.73437883       0.59895494 </v>
   <v>       0.46769476       0.92931999       0.40635861 </v>
   <v>       0.26815454       0.52192546       0.80932285 </v>
   <v>       0.20000847       0.39226727       0.60156122 </v>
   <v>       0.06422806       0.16342179       0.18584612 </v>
   <v>       0.76135688       0.52678307       0.80165851 </v>
   <v>       0.69580759       0.40689286       0.60408867 </v>
   <v>       0.60427001       0.19898762       0.79447435 </v>
   <v>       0.53733184       0.06742754       0.60186635 </v>
   <v>       0.33810313       0.65956538       0.00267323 </v>
   <v>       0.23211650       0.46911168       0.19894899 </v>
  </varray>
 </structure>
</modeling>
