SQS with 1 vacancy for VFE and VRV      
           1
    -3.190000   -3.190000   -3.190000
     1.595000    1.595000   -7.975000
     7.975000   -7.975000   -1.595000
   Nb   Mo   Ta   Ti   W 
   6   6   6   5   6
Direct configuration=     1
   0.96666667  0.93333333  0.40000000
   0.63333333  0.26666667  0.40000000
   0.50000000  0.00000000  0.00000000
   0.00000000  0.00000000  0.00000000
   0.10000000  0.20000000  0.80000000
   0.03333333  0.06666667  0.60000000
   0.90000000  0.80000000  0.20000000
   0.80000000  0.60000000  0.40000000
   0.73333333  0.46666667  0.20000000
   0.66666667  0.33333333  0.00000000
   0.36666667  0.73333333  0.60000000
   0.13333333  0.26666667  0.40000000
   0.83333333  0.66666667  0.00000000
   0.93333333  0.86666667  0.80000000
   0.56666667  0.13333333  0.20000000
   0.40000000  0.80000000  0.20000000
   0.43333333  0.86666667  0.80000000
   0.30000000  0.60000000  0.40000000
   0.86666667  0.73333333  0.60000000
   0.46666667  0.93333333  0.40000000
   0.26666667  0.53333333  0.80000000
   0.20000000  0.40000000  0.60000000
   0.06666667  0.13333333  0.20000000
   0.76666667  0.53333333  0.80000000
   0.70000000  0.40000000  0.60000000
   0.60000000  0.20000000  0.80000000
   0.53333333  0.06666667  0.60000000
   0.33333333  0.66666667  0.00000000
   0.23333333  0.46666667  0.20000000
SQS with 1 vacancy for VFE and VRV      
           1
    -3.164018   -3.163553   -3.165051
     1.562229    1.550136   -7.861208
     7.864254   -7.861775   -1.583840
   Nb   Mo   Ta   Ti   W 
   6   6   6   5   6
Direct configuration=     2
   0.96442551  0.93321001  0.39850166
   0.63235114  0.26603165  0.39964226
   0.49612140  0.00811314 -0.00081208
  -0.00321135 -0.00061282  0.00107462
   0.09641639  0.20619084  0.80226303
   0.03633592  0.06714730  0.59714390
   0.90018081  0.79924859  0.20166168
   0.80393554  0.59534092  0.39873211
   0.73199294  0.46722933  0.19965871
   0.66320352  0.33816570 -0.00095314
   0.36798705  0.73044974  0.59939342
   0.13229220  0.27027233  0.39889235
   0.83918746  0.65686895  0.00232767
   0.93054906  0.86887143  0.80048595
   0.56975739  0.13322474  0.19867510
   0.40410416  0.79531600  0.19803750
   0.43788714  0.86118141  0.79807639
   0.30008782  0.60154336  0.40202619
   0.86340154  0.73307069  0.59952357
   0.46557497  0.93249152  0.40303915
   0.26962040  0.53115555  0.80206723
   0.20055978  0.39656131  0.59938896
   0.06488298  0.14055335  0.19966100
   0.76371273  0.52969508  0.79966027
   0.69676838  0.40564450  0.60266860
   0.60183141  0.20102221  0.79754778
   0.53465234  0.06845446  0.60169392
   0.33682327  0.66219005  0.00162237
   0.23190143  0.46803532  0.19829984
SQS with 1 vacancy for VFE and VRV      
           1
    -3.169239   -3.168867   -3.170064
     1.568814    1.559150   -7.884072
     7.886506   -7.884526   -1.586082
   Nb   Mo   Ta   Ti   W 
   6   6   6   5   6
Direct configuration=     3
   0.96487934  0.93323472  0.39880701
   0.63254955  0.26616120  0.39971507
   0.49691400  0.00645599 -0.00064529
  -0.00256125 -0.00048748  0.00085554
   0.09714775  0.20492709  0.80180283
   0.03572790  0.06704846  0.59772601
   0.90014363  0.79940249  0.20132292
   0.80313424  0.59629214  0.39898974
   0.73226494  0.46711430  0.19972836
   0.66390915  0.33717850 -0.00075812
   0.36771708  0.73103848  0.59951658
   0.13250612  0.26953567  0.39911866
   0.83799330  0.65887058  0.00185173
   0.93111501  0.86842124  0.80038728
   0.56913110  0.13324665  0.19894507
   0.40326864  0.79627213  0.19843668
   0.43695985  0.86230119  0.79846752
   0.30007145  0.60122873  0.40161351
   0.86406275  0.73312411  0.59962064
   0.46579558  0.93266422  0.40241966
   0.26902028  0.53160093  0.80164558
   0.20044342  0.39726339  0.59951294
   0.06525045  0.13907878  0.19973123
   0.76430803  0.53043789  0.79972895
   0.69742799  0.40449244  0.60212566
   0.60146113  0.20081285  0.79804768
   0.53438675  0.06808986  0.60134898
   0.33611255  0.66310478  0.00129102
   0.23219258  0.46775532  0.19864655
SQS with 1 vacancy for VFE and VRV      
           1
    -3.196753   -3.196047   -3.200019
     1.564210    1.545715   -7.913553
     7.918061   -7.915598   -1.600709
   Nb   Mo   Ta   Ti   W 
   6   6   6   5   6
Direct configuration=     4
   0.96296560  0.93315082  0.39729070
   0.63173131  0.26575845  0.39932839
   0.49289633  0.01348867 -0.00159002
  -0.00501078 -0.00076343  0.00169696
   0.09518220  0.20961819  0.80402097
   0.03827774  0.06762063  0.59552294
   0.90031117  0.79888151  0.20250725
   0.80633843  0.59282455  0.39814638
   0.73173347  0.46704894  0.19957642
   0.66091507  0.34092955 -0.00154542
   0.36862503  0.72865833  0.59904720
   0.13153393  0.27231712  0.39827115
   0.84384463  0.65041107  0.00362381
   0.92964000  0.86955185  0.80089323
   0.57111616  0.13310607  0.19805846
   0.40636907  0.79335580  0.19706225
   0.43976481  0.85843447  0.79727908
   0.30034858  0.60223152  0.40348383
   0.86135589  0.73302466  0.59913161
   0.46494380  0.93177866  0.40488890
   0.27076079  0.52935055  0.80369393
   0.20061722  0.39463016  0.59907930
   0.06418843  0.14575727  0.19893505
   0.76260507  0.52775934  0.79967036
   0.69497127  0.40874732  0.60393320
   0.60236392  0.20175861  0.79617070
   0.53541401  0.06943538  0.60251475
   0.33847087  0.65942977  0.00226431
   0.23105930  0.46837084  0.19704430
SQS with 1 vacancy for VFE and VRV      
           1
    -3.204155   -3.203360   -3.208078
     1.562971    1.542100   -7.921485
     7.926551   -7.923957   -1.604645
   Nb   Mo   Ta   Ti   W 
   6   6   6   5   6
Direct configuration=     5
   0.96245542  0.93312880  0.39688436
   0.63151353  0.26565046  0.39922482
   0.49181763  0.01537742 -0.00184427
  -0.00566389 -0.00083754  0.00192248
   0.09465292  0.21087733  0.80461469
   0.03895743  0.06777459  0.59493248
   0.90035628  0.79874133  0.20282471
   0.80719667  0.59189350  0.39792091
   0.73159181  0.46703146  0.19953570
   0.66011273  0.34193710 -0.00175698
   0.36886969  0.72801933  0.59892178
   0.13127186  0.27306420  0.39804361
   0.84541378  0.64813890  0.00410000
   0.92924539  0.86985540  0.80102863
   0.57164583  0.13306839  0.19782089
   0.40719912  0.79257289  0.19669437
   0.44051701  0.85739637  0.79696120
   0.30042128  0.60250029  0.40398490
   0.86063409  0.73299828  0.59900056
   0.46471730  0.93154036  0.40555074
   0.27122712  0.52874572  0.80424320
   0.20066632  0.39392325  0.59896349
   0.06389838  0.14755067  0.19872069
   0.76215364  0.52704032  0.79965505
   0.69431148  0.40988946  0.60441694
   0.60260391  0.20201292  0.79566757
   0.53568650  0.06979628  0.60282697
   0.33910354  0.65844265  0.00252569
   0.23075656  0.46853657  0.19661483
SQS with 1 vacancy for VFE and VRV      
           1
    -3.206765   -3.208316   -3.213877
     1.560249    1.538256   -7.925592
     7.931167   -7.934233   -1.607687
   Nb   Mo   Ta   Ti   W 
   6   6   6   5   6
Direct configuration=     6
   0.96243197  0.93307812  0.39619911
   0.63148534  0.26594425  0.39916220
   0.49096725  0.01580539 -0.00248556
  -0.00587641 -0.00110143  0.00194037
   0.09598044  0.21003640  0.80514419
   0.03909522  0.06813582  0.59512679
   0.90066647  0.79863436  0.20249364
   0.80733259  0.59225113  0.39809731
   0.73175279  0.46661015  0.20000859
   0.65968778  0.34148464 -0.00184575
   0.36823799  0.72808620  0.59913781
   0.13111445  0.27303688  0.39798189
   0.84653758  0.64764317  0.00395109
   0.92994812  0.86905959  0.80135809
   0.57134301  0.13304783  0.19817166
   0.40722299  0.79336551  0.19673635
   0.43956193  0.85809602  0.79752155
   0.30078551  0.60229396  0.40402036
   0.86027511  0.73338503  0.59889518
   0.46473094  0.93112724  0.40570328
   0.27036742  0.52812520  0.80479463
   0.20029248  0.39385591  0.59907555
   0.06420306  0.14914232  0.19790237
   0.76268559  0.52795963  0.80003555
   0.69455635  0.40913510  0.60387874
   0.60256408  0.20179777  0.79552316
   0.53595451  0.06954321  0.60267680
   0.33834039  0.65897126  0.00203984
   0.23108837  0.46811601  0.19675524
SQS with 1 vacancy for VFE and VRV      
           1
    -3.210386   -3.215190   -3.221919
     1.556474    1.532926   -7.931289
     7.937570   -7.948484   -1.611908
   Nb   Mo   Ta   Ti   W 
   6   6   6   5   6
Direct configuration=     7
   0.96240034  0.93300769  0.39524955
   0.63144593  0.26635170  0.39907539
   0.48978936  0.01639905 -0.00337409
  -0.00617045 -0.00146736  0.00196523
   0.09782003  0.20886985  0.80587775
   0.03928535  0.06863682  0.59539597
   0.90109670  0.79848587  0.20203481
   0.80752015  0.59274714  0.39834169
   0.73197588  0.46602587  0.20066389
   0.65909987  0.34085722 -0.00196862
   0.36736258  0.72817916  0.59943729
   0.13089651  0.27299901  0.39789641
   0.84809524  0.64695533  0.00374456
   0.93092239  0.86795575  0.80181455
   0.57092316  0.13301946  0.19865780
   0.40725484  0.79446481  0.19679443
   0.43823724  0.85906673  0.79829816
   0.30129032  0.60200770  0.40406946
   0.85977737  0.73392151  0.59874918
   0.46475027  0.93055430  0.40591469
   0.26917681  0.52726492  0.80555901
   0.19977459  0.39376263  0.59923092
   0.06462370  0.15134956  0.19676819
   0.76342071  0.52923458  0.80056262
   0.69489726  0.40808869  0.60313296
   0.60250939  0.20149934  0.79532307
   0.53632633  0.06919213  0.60246868
   0.33728299  0.65970451  0.00136668
   0.23154847  0.46753267  0.19694979
SQS with 1 vacancy for VFE and VRV      
           1
    -3.205291   -3.211988   -3.219122
     1.550635    1.525237   -7.914896
     7.923396   -7.938258   -1.611243
   Nb   Mo   Ta   Ti   W 
   6   6   6   5   6
Direct configuration=     8
   0.96247316  0.93306511  0.39454993
   0.63151122  0.26647075  0.39908247
   0.48904393  0.01678751 -0.00381694
  -0.00652991 -0.00170366  0.00197183
   0.09853848  0.20839821  0.80636876
   0.03943186  0.06878531  0.59549165
   0.90140503  0.79834042  0.20170233
   0.80764901  0.59302021  0.39851944
   0.73183292  0.46603170  0.20093465
   0.65854579  0.34063658 -0.00212101
   0.36688219  0.72816215  0.59969169
   0.13082296  0.27303449  0.39786618
   0.84882648  0.64637533  0.00375194
   0.93120899  0.86737145  0.80201864
   0.57097098  0.13288872  0.19891581
   0.40727650  0.79508267  0.19668642
   0.43765096  0.85960445  0.79869624
   0.30156371  0.60196162  0.40404286
   0.85928298  0.73431880  0.59868927
   0.46476642  0.93012282  0.40610891
   0.26866568  0.52654175  0.80614777
   0.19949464  0.39357274  0.59939516
   0.06476549  0.15303872  0.19579120
   0.76357846  0.52958322  0.80077496
   0.69513597  0.40763473  0.60292474
   0.60288095  0.20132093  0.79509927
   0.53658877  0.06893615  0.60236986
   0.33721541  0.65995343  0.00123863
   0.23185429  0.46733033  0.19710735
SQS with 1 vacancy for VFE and VRV      
           1
    -3.202746   -3.210389   -3.217725
     1.547719    1.521396   -7.906710
     7.916317   -7.933151   -1.610912
   Nb   Mo   Ta   Ti   W 
   6   6   6   5   6
Direct configuration=     9
   0.96250977  0.93309384  0.39419999
   0.63154381  0.26653035  0.39908599
   0.48867115  0.01698204 -0.00403844
  -0.00670954 -0.00182195  0.00197518
   0.09889779  0.20816205  0.80661433
   0.03950502  0.06885965  0.59553950
   0.90155938  0.79826758  0.20153601
   0.80771327  0.59315692  0.39860833
   0.73176136  0.46603464  0.20107009
   0.65826888  0.34052615 -0.00219719
   0.36664191  0.72815367  0.59981897
   0.13078617  0.27305226  0.39785107
   0.84919239  0.64608491  0.00375563
   0.93135251  0.86707891  0.80212074
   0.57099487  0.13282326  0.19904487
   0.40728708  0.79539200  0.19663235
   0.43735744  0.85987370  0.79889536
   0.30170045  0.60193853  0.40402954
   0.85903560  0.73451774  0.59865931
   0.46477463  0.92990679  0.40620608
   0.26841025  0.52617972  0.80644233
   0.19935469  0.39347770  0.59947734
   0.06483590  0.15388438  0.19530241
   0.76365712  0.52975777  0.80088114
   0.69525560  0.40740744  0.60282061
   0.60306689  0.20123158  0.79498731
   0.53672015  0.06880797  0.60232043
   0.33718154  0.66007806  0.00117457
   0.23200726  0.46722901  0.19718615
SQS with 1 vacancy for VFE and VRV      
           1
    -3.203472   -3.212076   -3.219218
     1.546886    1.518182   -7.905197
     7.917860   -7.935567   -1.613157
   Nb   Mo   Ta   Ti   W 
   6   6   6   5   6
Direct configuration=    10
   0.96268234  0.93328560  0.39372098
   0.63169626  0.26643449  0.39914906
   0.48817493  0.01727139 -0.00409683
  -0.00708406 -0.00186657  0.00195336
   0.09880728  0.20822764  0.80696330
   0.03963504  0.06869159  0.59549958
   0.90173193  0.79817858  0.20131235
   0.80774029  0.59334585  0.39874691
   0.73140199  0.46645020  0.20106256
   0.65776043  0.34053473 -0.00232213
   0.36642499  0.72811506  0.60002061
   0.13088753  0.27308072  0.39787555
   0.84942176  0.64552167  0.00393370
   0.93120681  0.86678355  0.80211033
   0.57131825  0.13260093  0.19913241
   0.40728549  0.79569572  0.19643490
   0.43736517  0.85999489  0.79895569
   0.30176439  0.60205621  0.40399109
   0.85858959  0.73478759  0.59866578
   0.46485237  0.92958945  0.40634452
   0.26838105  0.52552834  0.80689341
   0.19926898  0.39327833  0.59964961
   0.06479028  0.15520748  0.19435581
   0.76339498  0.52946263  0.80087145
   0.69540240  0.40739350  0.60297446
   0.60364310  0.20114315  0.79482626
   0.53684296  0.06860525  0.60225275
   0.33775123  0.65999073  0.00142535
   0.23219556  0.46727797  0.19729720
SQS with 1 vacancy for VFE and VRV      
           1
    -3.205649   -3.217135   -3.223698
     1.544388    1.508540   -7.900658
     7.922486   -7.942813   -1.619894
   Nb   Mo   Ta   Ti   W 
   6   6   6   5   6
Direct configuration=    11
   0.96319990  0.93386129  0.39228421
   0.63215354  0.26614677  0.39933824
   0.48668651  0.01813985 -0.00427202
  -0.00820712 -0.00200047  0.00188800
   0.09853555  0.20842434  0.80800994
   0.04002522  0.06818722  0.59537992
   0.90224964  0.79791158  0.20064154
   0.80782099  0.59391280  0.39916246
   0.73032376  0.46769740  0.20103986
   0.65623572  0.34056055 -0.00269679
   0.36577441  0.72799912  0.60062543
   0.13119143  0.27316613  0.39794896
   0.85011023  0.64383121  0.00446801
   0.93077029  0.86589714  0.80207925
   0.57228824  0.13193360  0.19939499
   0.40728043  0.79660735  0.19584253
   0.43738817  0.86035859  0.79913656
   0.30195602  0.60240938  0.40387570
   0.85725174  0.73559750  0.59868513
   0.46508584  0.92863696  0.40675985
   0.26829407  0.52357321  0.80824658
   0.19901208  0.39267993  0.60016639
   0.06465233  0.15917880  0.19151611
   0.76260928  0.52857689  0.80084259
   0.69584254  0.40735159  0.60343590
   0.60537128  0.20087779  0.79434318
   0.53721156  0.06799685  0.60204980
   0.33945960  0.65972850  0.00217744
   0.23276009  0.46742483  0.19763021
SQS with 1 vacancy for VFE and VRV      
           1
    -3.206878   -3.219402   -3.224895
     1.549108    1.511454   -7.909546
     7.929455   -7.949400   -1.623416
   Nb   Mo   Ta   Ti   W 
   6   6   6   5   6
Direct configuration=    12
   0.96341483  0.93405931  0.39227771
   0.63229376  0.26618615  0.39934460
   0.48689375  0.01806999 -0.00409862
  -0.00829797 -0.00191391  0.00172338
   0.09829707  0.20857923  0.80788427
   0.04009612  0.06789583  0.59526581
   0.90213971  0.79807488  0.20073540
   0.80781773  0.59384099  0.39917320
   0.73034084  0.46782086  0.20118932
   0.65607379  0.34055924 -0.00260028
   0.36580436  0.72792831  0.60057048
   0.13127054  0.27330225  0.39792046
   0.85026380  0.64376099  0.00444755
   0.93095175  0.86584916  0.80210288
   0.57249514  0.13203697  0.19927043
   0.40717167  0.79663696  0.19588636
   0.43751980  0.85986640  0.79898873
   0.30181234  0.60258645  0.40404317
   0.85723580  0.73543977  0.59871764
   0.46540764  0.92864025  0.40667937
   0.26859925  0.52347082  0.80835273
   0.19936638  0.39256888  0.60032415
   0.06445070  0.15957352  0.19089519
   0.76216494  0.52842092  0.80088443
   0.69563829  0.40753415  0.60357191
   0.60514852  0.20057177  0.79441598
   0.53706337  0.06803795  0.60207752
   0.33915719  0.65965302  0.00218499
   0.23274221  0.46761559  0.19777123
SQS with 1 vacancy for VFE and VRV      
           1
    -3.207287   -3.220157   -3.225294
     1.550680    1.512424   -7.912506
     7.931776   -7.951594   -1.624589
   Nb   Mo   Ta   Ti   W 
   6   6   6   5   6
Direct configuration=    13
   0.96348641  0.93412517  0.39227554
   0.63234043  0.26619925  0.39934671
   0.48696271  0.01804675 -0.00404092
  -0.00832819 -0.00188511  0.00166860
   0.09821773  0.20863075  0.80784245
   0.04011967  0.06779893  0.59522785
   0.90210315  0.79812918  0.20076663
   0.80781663  0.59381710  0.39917678
   0.73034654  0.46786191  0.20123904
   0.65601989  0.34055879 -0.00256816
   0.36581432  0.72790477  0.60055220
   0.13129690  0.27334752  0.39791097
   0.85031491  0.64373764  0.00444074
   0.93101214  0.86583320  0.80211075
   0.57256403  0.13207137  0.19922898
   0.40713548  0.79664680  0.19590094
   0.43756352  0.85970272  0.79893956
   0.30176455  0.60264532  0.40409889
   0.85723047  0.73538731  0.59872846
   0.46551475  0.92864136  0.40665258
   0.26870082  0.52343676  0.80838805
   0.19948428  0.39253194  0.60037664
   0.06438368  0.15970485  0.19068858
   0.76201701  0.52836903  0.80089836
   0.69557033  0.40759484  0.60361716
   0.60507431  0.20046998  0.79444023
   0.53701405  0.06805161  0.60208675
   0.33905652  0.65962790  0.00218752
   0.23273629  0.46767902  0.19781814
SQS with 1 vacancy for VFE and VRV      
           1
    -3.205156   -3.219097   -3.223288
     1.553093    1.512820   -7.911900
     7.930381   -7.949963   -1.626447
   Nb   Mo   Ta   Ti   W 
   6   6   6   5   6
Direct configuration=    14
   0.96367291  0.93428877  0.39224822
   0.63243882  0.26625613  0.39936309
   0.48713616  0.01793927 -0.00394087
  -0.00836743 -0.00184683  0.00152494
   0.09800964  0.20870499  0.80773815
   0.04016443  0.06760421  0.59513878
   0.90202777  0.79827277  0.20084711
   0.80783909  0.59375396  0.39919911
   0.73032032  0.46800546  0.20134960
   0.65586268  0.34057703 -0.00249214
   0.36583767  0.72782682  0.60050725
   0.13136873  0.27349095  0.39788964
   0.85034001  0.64369997  0.00443249
   0.93112995  0.86578724  0.80213023
   0.57271630  0.13218236  0.19914485
   0.40705973  0.79662721  0.19592948
   0.43766944  0.85933689  0.79881866
   0.30168121  0.60278181  0.40423790
   0.85722640  0.73524660  0.59875542
   0.46579911  0.92866279  0.40659210
   0.26890848  0.52335347  0.80845954
   0.19975546  0.39244502  0.60051174
   0.06425412  0.16002123  0.19016402
   0.76170885  0.52821774  0.80094960
   0.69542429  0.40770416  0.60373239
   0.60488135  0.20023485  0.79448735
   0.53691903  0.06806899  0.60211721
   0.33884049  0.65956359  0.00221313
   0.23270833  0.46785924  0.19795100
SQS with 1 vacancy for VFE and VRV      
           1
    -3.198940   -3.216006   -3.217435
     1.560132    1.513976   -7.910132
     7.926311   -7.945207   -1.631867
   Nb   Mo   Ta   Ti   W 
   6   6   6   5   6
Direct configuration=    15
   0.96421737  0.93476598  0.39216843
   0.63272600  0.26642203  0.39941086
   0.48764221  0.01762576 -0.00364895
  -0.00848188 -0.00173508  0.00110580
   0.09740246  0.20892156  0.80743386
   0.04029486  0.06703634  0.59487900
   0.90180794  0.79869152  0.20108189
   0.80790454  0.59356976  0.39926427
   0.73024394  0.46842407  0.20167207
   0.65540389  0.34063015 -0.00227032
   0.36590575  0.72759948  0.60037612
   0.13157852  0.27390932  0.39782734
   0.85041324  0.64359009  0.00440843
   0.93147369  0.86565317  0.80218705
   0.57316086  0.13250616  0.19889934
   0.40683864  0.79657003  0.19601278
   0.43797815  0.85826998  0.79846606
   0.30143813  0.60317978  0.40464343
   0.85721436  0.73483619  0.59883412
   0.46662901  0.92872538  0.40641558
   0.26951443  0.52311050  0.80866811
   0.20054674  0.39219145  0.60090585
   0.06387652  0.16094439  0.18863357
   0.76080931  0.52777637  0.80109919
   0.69499817  0.40802291  0.60406857
   0.60431791  0.19954897  0.79462496
   0.53664172  0.06811964  0.60220608
   0.33820992  0.65937595  0.00228794
   0.23262691  0.46838479  0.19833855
SQS with 1 vacancy for VFE and VRV      
           1
    -3.197832   -3.216090   -3.216927
     1.561979    1.513185   -7.910426
     7.927519   -7.946393   -1.634562
   Nb   Mo   Ta   Ti   W 
   6   6   6   5   6
Direct configuration=    16
   0.96440927  0.93495876  0.39206935
   0.63275950  0.26652246  0.39944079
   0.48767469  0.01735535 -0.00370900
  -0.00831257 -0.00176478  0.00098122
   0.09726466  0.20870904  0.80739050
   0.04028115  0.06702825  0.59483632
   0.90180642  0.79886473  0.20110400
   0.80796999  0.59366531  0.39936271
   0.73016589  0.46862347  0.20170045
   0.65515331  0.34060233 -0.00219571
   0.36587324  0.72752817  0.60035745
   0.13173729  0.27401215  0.39779358
   0.85018494  0.64353727  0.00447978
   0.93141975  0.86543473  0.80215378
   0.57306919  0.13270363  0.19892107
   0.40675568  0.79669934  0.19601092
   0.43805578  0.85814055  0.79845043
   0.30139795  0.60326179  0.40478461
   0.85728375  0.73470568  0.59886461
   0.46696344  0.92881776  0.40635421
   0.26940458  0.52296069  0.80875939
   0.20059028  0.39219446  0.60104718
   0.06387518  0.16135010  0.18803175
   0.76084977  0.52758332  0.80120833
   0.69506087  0.40787078  0.60412066
   0.60419647  0.19940473  0.79465055
   0.53669137  0.06798657  0.60216662
   0.33817874  0.65937432  0.00237784
   0.23257275  0.46853570  0.19848658
SQS with 1 vacancy for VFE and VRV      
           1
    -3.194506   -3.216342   -3.215402
     1.567520    1.510809   -7.911307
     7.931141   -7.949953   -1.642649
   Nb   Mo   Ta   Ti   W 
   6   6   6   5   6
Direct configuration=    17
   0.96498517  0.93553715  0.39177203
   0.63286002  0.26682373  0.39953052
   0.48777207  0.01654420 -0.00388898
  -0.00780452 -0.00185378  0.00060750
   0.09685110  0.20807153  0.80726059
   0.04024004  0.06700400  0.59470828
   0.90180192  0.79938430  0.20117020
   0.80816640  0.59395188  0.39965791
   0.72993178  0.46922160  0.20178550
   0.65440141  0.34051878 -0.00197187
   0.36577566  0.72731426  0.60030150
   0.13221372  0.27432065  0.39769224
   0.84949989  0.64337874  0.00469388
   0.93125780  0.86477946  0.80205410
   0.57279422  0.13329598  0.19898618
   0.40650682  0.79708723  0.19600529
   0.43828865  0.85775230  0.79840360
   0.30127738  0.60350769  0.40520805
   0.85749190  0.73431415  0.59895614
   0.46796695  0.92909493  0.40617002
   0.26907490  0.52251124  0.80903331
   0.20072084  0.39220340  0.60147111
   0.06387152  0.16256765  0.18622638
   0.76097102  0.52700411  0.80153578
   0.69524894  0.40741438  0.60427696
   0.60383202  0.19897199  0.79472741
   0.53684031  0.06758743  0.60204831
   0.33808515  0.65936937  0.00264753
   0.23241025  0.46898831  0.19893055
SQS with 1 vacancy for VFE and VRV      
           1
    -3.195929   -3.217557   -3.217270
     1.565827    1.509615   -7.911761
     7.932466   -7.951994   -1.642373
   Nb   Mo   Ta   Ti   W 
   6   6   6   5   6
Direct configuration=    18
   0.96508996  0.93564747  0.39164988
   0.63285350  0.26692832  0.39953804
   0.48783401  0.01645408 -0.00405405
  -0.00798750 -0.00200239  0.00068507
   0.09700848  0.20770896  0.80734787
   0.04030656  0.06710965  0.59473404
   0.90190317  0.79945882  0.20107905
   0.80822325  0.59412672  0.39973765
   0.72990938  0.46916539  0.20180529
   0.65419713  0.34040621 -0.00203256
   0.36580239  0.72731594  0.60046174
   0.13218353  0.27433175  0.39767892
   0.84946586  0.64329902  0.00480833
   0.93134146  0.86460112  0.80204536
   0.57255161  0.13339771  0.19898143
   0.40659213  0.79733919  0.19601389
   0.43797621  0.85784690  0.79846951
   0.30146999  0.60348411  0.40512865
   0.85756415  0.73433172  0.59895591
   0.46786795  0.92916672  0.40622807
   0.26875775  0.52232603  0.80912497
   0.20047051  0.39222997  0.60150396
   0.06400138  0.16283337  0.18610946
   0.76111960  0.52694151  0.80157591
   0.69544647  0.40722482  0.60420834
   0.60397585  0.19899671  0.79464708
   0.53700079  0.06753552  0.60198491
   0.33809510  0.65944532  0.00264903
   0.23231266  0.46901602  0.19893424
SQS with 1 vacancy for VFE and VRV      
           1
    -3.197905   -3.219246   -3.219865
     1.563475    1.507955   -7.912392
     7.934308   -7.954829   -1.641991
   Nb   Mo   Ta   Ti   W 
   6   6   6   5   6
Direct configuration=    19
   0.96523544  0.93580075  0.39148021
   0.63284439  0.26707365  0.39954850
   0.48792011  0.01632882 -0.00428336
  -0.00824156 -0.00220888  0.00079283
   0.09722726  0.20720512  0.80746912
   0.04039887  0.06725646  0.59476983
   0.90204375  0.79956236  0.20095242
   0.80830209  0.59436969  0.39984842
   0.72987829  0.46908729  0.20183278
   0.65391348  0.34024978 -0.00211689
   0.36583950  0.72731828  0.60068436
   0.13214161  0.27434718  0.39766041
   0.84941863  0.64318825  0.00496732
   0.93145776  0.86435329  0.80203320
   0.57221460  0.13353909  0.19897483
   0.40671047  0.79768929  0.19602585
   0.43754221  0.85797839  0.79856106
   0.30173752  0.60345131  0.40501835
   0.85766449  0.73435612  0.59895560
   0.46773041  0.92926649  0.40630871
   0.26831738  0.52206870  0.80925228
   0.20012282  0.39226693  0.60154960
   0.06418159  0.16320260  0.18594704
   0.76132599  0.52685451  0.80163167
   0.69572093  0.40696137  0.60411303
   0.60417560  0.19903103  0.79453548
   0.53722370  0.06746338  0.60189685
   0.33810887  0.65955086  0.00265113
   0.23217711  0.46905454  0.19893937
SQS with 1 vacancy for VFE and VRV      
           1
    -3.197455   -3.218853   -3.219621
     1.562485    1.506598   -7.909856
     7.932433   -7.953096   -1.641877
   Nb   Mo   Ta   Ti   W 
   6   6   6   5   6
Direct configuration=    20
   0.96529827  0.93588211  0.39139887
   0.63284425  0.26714396  0.39954132
   0.48792751  0.01627034 -0.00438525
  -0.00834834 -0.00230882  0.00082768
   0.09730122  0.20699121  0.80753198
   0.04046153  0.06729612  0.59477627
   0.90208645  0.79960909  0.20091837
   0.80834957  0.59448339  0.39989393
   0.72981887  0.46912214  0.20185694
   0.65374996  0.34019928 -0.00216806
   0.36588134  0.72730678  0.60077179
   0.13212796  0.27439187  0.39765586
   0.84940656  0.64310083  0.00505594
   0.93143607  0.86420893  0.80202726
   0.57212113  0.13358777  0.19897516
   0.40677471  0.79782055  0.19601311
   0.43744993  0.85799037  0.79857435
   0.30187703  0.60348926  0.40498064
   0.85769754  0.73437883  0.59895494
   0.46769476  0.92931999  0.40635861
   0.26815454  0.52192546  0.80932285
   0.20000847  0.39226727  0.60156122
   0.06422806  0.16342179  0.18584612
   0.76135688  0.52678307  0.80165851
   0.69580759  0.40689286  0.60408867
   0.60427001  0.19898762  0.79447435
   0.53733184  0.06742754  0.60186635
   0.33810313  0.65956538  0.00267323
   0.23211650  0.46911168  0.19894899
