  29  29   0   0
  0.1679057E+02  0.5525242E-09  0.8287863E-09  0.1139058E-08  0.5000000E-15
  1.000000000000000E-004
  CAR 
 SQS with 1 vacancy for VFE and VRV      
     12.07046333    -50.44452159  301      6.59745117      1.00000000
    -50.445  0.0000E+00  0.0000E+00
    -50.236  0.0000E+00  0.0000E+00
    -50.028  0.0000E+00  0.0000E+00
    -49.819  0.0000E+00  0.0000E+00
    -49.611  0.0000E+00  0.0000E+00
    -49.403 -0.8124E-35 -0.1693E-35
    -49.194 -0.3385E-27 -0.7055E-28
    -48.986 -0.1581E-20 -0.3295E-21
    -48.777 -0.7966E-15 -0.1660E-15
    -48.569 -0.4536E-10 -0.9453E-11
    -48.361 -0.2764E-06 -0.5760E-07
    -48.152 -0.1719E-03 -0.3588E-04
    -47.944 -0.9210E-02 -0.1955E-02
    -47.736  0.1114E-01  0.3652E-03
    -47.527  0.4440E+00  0.9288E-01
    -47.319  0.1125E+01  0.3273E+00
    -47.110  0.8054E+00  0.4951E+00
    -46.902  0.4038E-01  0.5035E+00
    -46.694 -0.1637E-01  0.5001E+00
    -46.485 -0.4151E-03  0.5000E+00
    -46.277 -0.9478E-06  0.5000E+00
    -46.068 -0.2269E-09  0.5000E+00
    -45.860 -0.5882E-14  0.5000E+00
    -45.652  0.0000E+00  0.5000E+00
    -45.443  0.0000E+00  0.5000E+00
    -45.235  0.0000E+00  0.5000E+00
    -45.027  0.0000E+00  0.5000E+00
    -44.818  0.0000E+00  0.5000E+00
    -44.610  0.0000E+00  0.5000E+00
    -44.401  0.0000E+00  0.5000E+00
    -44.193  0.0000E+00  0.5000E+00
    -43.985  0.0000E+00  0.5000E+00
    -43.776  0.0000E+00  0.5000E+00
    -43.568  0.0000E+00  0.5000E+00
    -43.359  0.0000E+00  0.5000E+00
    -43.151  0.0000E+00  0.5000E+00
    -42.943  0.0000E+00  0.5000E+00
    -42.734  0.0000E+00  0.5000E+00
    -42.526  0.0000E+00  0.5000E+00
    -42.318  0.0000E+00  0.5000E+00
    -42.109  0.0000E+00  0.5000E+00
    -41.901  0.0000E+00  0.5000E+00
    -41.692  0.0000E+00  0.5000E+00
    -41.484  0.0000E+00  0.5000E+00
    -41.276  0.0000E+00  0.5000E+00
    -41.067  0.0000E+00  0.5000E+00
    -40.859  0.0000E+00  0.5000E+00
    -40.651  0.0000E+00  0.5000E+00
    -40.442  0.0000E+00  0.5000E+00
    -40.234  0.0000E+00  0.5000E+00
    -40.025  0.0000E+00  0.5000E+00
    -39.817  0.0000E+00  0.5000E+00
    -39.609  0.0000E+00  0.5000E+00
    -39.400  0.0000E+00  0.5000E+00
    -39.192  0.0000E+00  0.5000E+00
    -38.983  0.0000E+00  0.5000E+00
    -38.775  0.0000E+00  0.5000E+00
    -38.567  0.0000E+00  0.5000E+00
    -38.358  0.0000E+00  0.5000E+00
    -38.150  0.0000E+00  0.5000E+00
    -37.942  0.0000E+00  0.5000E+00
    -37.733  0.0000E+00  0.5000E+00
    -37.525  0.0000E+00  0.5000E+00
    -37.316  0.0000E+00  0.5000E+00
    -37.108  0.0000E+00  0.5000E+00
    -36.900  0.0000E+00  0.5000E+00
    -36.691  0.0000E+00  0.5000E+00
    -36.483  0.0000E+00  0.5000E+00
    -36.274  0.0000E+00  0.5000E+00
    -36.066  0.0000E+00  0.5000E+00
    -35.858  0.0000E+00  0.5000E+00
    -35.649  0.0000E+00  0.5000E+00
    -35.441  0.0000E+00  0.5000E+00
    -35.233  0.0000E+00  0.5000E+00
    -35.024  0.0000E+00  0.5000E+00
    -34.816  0.0000E+00  0.5000E+00
    -34.607  0.0000E+00  0.5000E+00
    -34.399  0.0000E+00  0.5000E+00
    -34.191  0.0000E+00  0.5000E+00
    -33.982  0.0000E+00  0.5000E+00
    -33.774  0.0000E+00  0.5000E+00
    -33.565  0.0000E+00  0.5000E+00
    -33.357  0.0000E+00  0.5000E+00
    -33.149  0.0000E+00  0.5000E+00
    -32.940  0.0000E+00  0.5000E+00
    -32.732  0.0000E+00  0.5000E+00
    -32.524  0.0000E+00  0.5000E+00
    -32.315  0.0000E+00  0.5000E+00
    -32.107  0.0000E+00  0.5000E+00
    -31.898  0.0000E+00  0.5000E+00
    -31.690  0.0000E+00  0.5000E+00
    -31.482  0.0000E+00  0.5000E+00
    -31.273  0.0000E+00  0.5000E+00
    -31.065  0.0000E+00  0.5000E+00
    -30.856  0.0000E+00  0.5000E+00
    -30.648  0.0000E+00  0.5000E+00
    -30.440  0.0000E+00  0.5000E+00
    -30.231  0.0000E+00  0.5000E+00
    -30.023  0.0000E+00  0.5000E+00
    -29.815  0.0000E+00  0.5000E+00
    -29.606  0.0000E+00  0.5000E+00
    -29.398  0.0000E+00  0.5000E+00
    -29.189  0.0000E+00  0.5000E+00
    -28.981  0.0000E+00  0.5000E+00
    -28.773  0.0000E+00  0.5000E+00
    -28.564  0.0000E+00  0.5000E+00
    -28.356  0.0000E+00  0.5000E+00
    -28.148  0.0000E+00  0.5000E+00
    -27.939  0.0000E+00  0.5000E+00
    -27.731  0.0000E+00  0.5000E+00
    -27.522  0.0000E+00  0.5000E+00
    -27.314  0.0000E+00  0.5000E+00
    -27.106  0.0000E+00  0.5000E+00
    -26.897  0.0000E+00  0.5000E+00
    -26.689  0.0000E+00  0.5000E+00
    -26.480  0.0000E+00  0.5000E+00
    -26.272  0.0000E+00  0.5000E+00
    -26.064  0.0000E+00  0.5000E+00
    -25.855 -0.4573E-32  0.5000E+00
    -25.647 -0.8553E-25  0.5000E+00
    -25.439 -0.1820E-18  0.5000E+00
    -25.230 -0.4242E-13  0.5000E+00
    -25.022 -0.1127E-08  0.5000E+00
    -24.813 -0.3247E-05  0.5000E+00
    -24.605 -0.9458E-03  0.4998E+00
    -24.397 -0.1958E-01  0.4957E+00
    -24.188  0.1388E+00  0.5246E+00
    -23.980  0.4993E+00  0.6287E+00
    -23.771  0.9347E+00  0.8235E+00
    -23.563  0.2091E+01  0.1259E+01
    -23.355  0.2008E+01  0.1678E+01
    -23.146  0.9587E+00  0.1877E+01
    -22.938  0.4657E+00  0.1974E+01
    -22.730  0.1326E+00  0.2002E+01
    -22.521 -0.7674E-02  0.2000E+01
    -22.313 -0.2057E-02  0.2000E+01
    -22.104 -0.2900E-04  0.2000E+01
    -21.896 -0.4057E-07  0.2000E+01
    -21.688 -0.5986E-11  0.2000E+01
    -21.479 -0.1066E-15  0.2000E+01
    -21.271  0.0000E+00  0.2000E+01
    -21.062  0.0000E+00  0.2000E+01
    -20.854  0.0000E+00  0.2000E+01
    -20.646  0.0000E+00  0.2000E+01
    -20.437  0.0000E+00  0.2000E+01
    -20.229  0.0000E+00  0.2000E+01
    -20.021  0.0000E+00  0.2000E+01
    -19.812  0.0000E+00  0.2000E+01
    -19.604  0.0000E+00  0.2000E+01
    -19.395  0.0000E+00  0.2000E+01
    -19.187  0.0000E+00  0.2000E+01
    -18.979  0.0000E+00  0.2000E+01
    -18.770  0.0000E+00  0.2000E+01
    -18.562  0.0000E+00  0.2000E+01
    -18.353  0.0000E+00  0.2000E+01
    -18.145  0.0000E+00  0.2000E+01
    -17.937  0.0000E+00  0.2000E+01
    -17.728  0.0000E+00  0.2000E+01
    -17.520  0.0000E+00  0.2000E+01
    -17.312  0.0000E+00  0.2000E+01
    -17.103  0.0000E+00  0.2000E+01
    -16.895  0.0000E+00  0.2000E+01
    -16.686  0.0000E+00  0.2000E+01
    -16.478  0.0000E+00  0.2000E+01
    -16.270  0.0000E+00  0.2000E+01
    -16.061  0.0000E+00  0.2000E+01
    -15.853  0.0000E+00  0.2000E+01
    -15.645  0.0000E+00  0.2000E+01
    -15.436  0.0000E+00  0.2000E+01
    -15.228  0.0000E+00  0.2000E+01
    -15.019  0.0000E+00  0.2000E+01
    -14.811  0.0000E+00  0.2000E+01
    -14.603  0.0000E+00  0.2000E+01
    -14.394  0.0000E+00  0.2000E+01
    -14.186  0.0000E+00  0.2000E+01
    -13.977  0.0000E+00  0.2000E+01
    -13.769  0.0000E+00  0.2000E+01
    -13.561  0.0000E+00  0.2000E+01
    -13.352  0.0000E+00  0.2000E+01
    -13.144  0.0000E+00  0.2000E+01
    -12.936  0.0000E+00  0.2000E+01
    -12.727  0.0000E+00  0.2000E+01
    -12.519  0.0000E+00  0.2000E+01
    -12.310  0.0000E+00  0.2000E+01
    -12.102  0.0000E+00  0.2000E+01
    -11.894  0.0000E+00  0.2000E+01
    -11.685  0.0000E+00  0.2000E+01
    -11.477  0.0000E+00  0.2000E+01
    -11.268  0.0000E+00  0.2000E+01
    -11.060  0.0000E+00  0.2000E+01
    -10.852  0.0000E+00  0.2000E+01
    -10.643  0.0000E+00  0.2000E+01
    -10.435  0.0000E+00  0.2000E+01
    -10.227  0.0000E+00  0.2000E+01
    -10.018  0.0000E+00  0.2000E+01
     -9.810  0.0000E+00  0.2000E+01
     -9.601  0.0000E+00  0.2000E+01
     -9.393  0.0000E+00  0.2000E+01
     -9.185  0.0000E+00  0.2000E+01
     -8.976  0.0000E+00  0.2000E+01
     -8.768  0.0000E+00  0.2000E+01
     -8.559  0.0000E+00  0.2000E+01
     -8.351  0.0000E+00  0.2000E+01
     -8.143  0.0000E+00  0.2000E+01
     -7.934  0.0000E+00  0.2000E+01
     -7.726  0.0000E+00  0.2000E+01
     -7.518  0.0000E+00  0.2000E+01
     -7.309  0.0000E+00  0.2000E+01
     -7.101  0.0000E+00  0.2000E+01
     -6.892  0.0000E+00  0.2000E+01
     -6.684  0.0000E+00  0.2000E+01
     -6.476  0.0000E+00  0.2000E+01
     -6.267  0.0000E+00  0.2000E+01
     -6.059  0.0000E+00  0.2000E+01
     -5.850  0.0000E+00  0.2000E+01
     -5.642  0.0000E+00  0.2000E+01
     -5.434  0.0000E+00  0.2000E+01
     -5.225  0.0000E+00  0.2000E+01
     -5.017  0.0000E+00  0.2000E+01
     -4.809  0.0000E+00  0.2000E+01
     -4.600  0.0000E+00  0.2000E+01
     -4.392  0.0000E+00  0.2000E+01
     -4.183  0.0000E+00  0.2000E+01
     -3.975  0.0000E+00  0.2000E+01
     -3.767  0.0000E+00  0.2000E+01
     -3.558  0.0000E+00  0.2000E+01
     -3.350  0.0000E+00  0.2000E+01
     -3.142  0.0000E+00  0.2000E+01
     -2.933  0.0000E+00  0.2000E+01
     -2.725  0.0000E+00  0.2000E+01
     -2.516 -0.7355E-34  0.2000E+01
     -2.308 -0.1331E-26  0.2000E+01
     -2.100 -0.2717E-20  0.2000E+01
     -1.891 -0.6049E-15  0.2000E+01
     -1.683 -0.1547E-10  0.2000E+01
     -1.474 -0.4413E-07  0.2000E+01
     -1.266 -0.1378E-04  0.2000E+01
     -1.058 -0.4166E-03  0.2000E+01
     -0.849  0.8392E-03  0.2000E+01
     -0.641  0.1935E-01  0.2004E+01
     -0.433  0.5342E-01  0.2015E+01
     -0.224  0.8317E-01  0.2033E+01
     -0.016  0.8615E-01  0.2051E+01
      0.193  0.6753E-01  0.2065E+01
      0.401  0.1327E+00  0.2092E+01
      0.609  0.1686E+00  0.2127E+01
      0.818  0.1511E+00  0.2159E+01
      1.026  0.1289E+00  0.2186E+01
      1.235  0.2266E+00  0.2233E+01
      1.443  0.2070E+00  0.2276E+01
      1.651  0.2142E+00  0.2321E+01
      1.860  0.3389E+00  0.2391E+01
      2.068  0.4887E+00  0.2493E+01
      2.276  0.6923E+00  0.2637E+01
      2.485  0.9160E+00  0.2828E+01
      2.693  0.1108E+01  0.3059E+01
      2.902  0.1260E+01  0.3322E+01
      3.110  0.1381E+01  0.3610E+01
      3.318  0.1521E+01  0.3927E+01
      3.527  0.1468E+01  0.4233E+01
      3.735  0.1471E+01  0.4539E+01
      3.944  0.1442E+01  0.4839E+01
      4.152  0.1276E+01  0.5105E+01
      4.360  0.1264E+01  0.5369E+01
      4.569  0.1650E+01  0.5713E+01
      4.777  0.2010E+01  0.6131E+01
      4.985  0.2048E+01  0.6558E+01
      5.194  0.1924E+01  0.6959E+01
      5.402  0.1830E+01  0.7340E+01
      5.611  0.1812E+01  0.7718E+01
      5.819  0.1882E+01  0.8110E+01
      6.027  0.1975E+01  0.8522E+01
      6.236  0.1958E+01  0.8930E+01
      6.444  0.1809E+01  0.9307E+01
      6.652  0.1569E+01  0.9634E+01
      6.861  0.1393E+01  0.9924E+01
      7.069  0.1039E+01  0.1014E+02
      7.278  0.8783E+00  0.1032E+02
      7.486  0.8288E+00  0.1050E+02
      7.694  0.8209E+00  0.1067E+02
      7.903  0.8922E+00  0.1085E+02
      8.111  0.9727E+00  0.1106E+02
      8.320  0.1085E+01  0.1128E+02
      8.528  0.1176E+01  0.1153E+02
      8.736  0.1085E+01  0.1175E+02
      8.945  0.7631E+00  0.1191E+02
      9.153  0.3726E+00  0.1199E+02
      9.361  0.5551E-01  0.1200E+02
      9.570 -0.7393E-02  0.1200E+02
      9.778 -0.8101E-03  0.1200E+02
      9.987 -0.8423E-05  0.1200E+02
     10.195 -0.1037E-07  0.1200E+02
     10.403 -0.1474E-11  0.1200E+02
     10.612 -0.2387E-16  0.1200E+02
     10.820  0.0000E+00  0.1200E+02
     11.029  0.0000E+00  0.1200E+02
     11.237  0.0000E+00  0.1200E+02
     11.445  0.0000E+00  0.1200E+02
     11.654  0.0000E+00  0.1200E+02
     11.862  0.0000E+00  0.1200E+02
     12.070  0.0000E+00  0.1200E+02
