   29   29   20    1
  0.1679057E+02  0.5525242E-09  0.8287863E-09  0.1139058E-08  0.5000000E-15
  1.000000000000000E-004
  CAR 
 SQS with 1 vacancy for VFE and VRV      
    191     63    120
 
  0.0000000E+00  0.0000000E+00  0.0000000E+00  0.8000000E-02
    1      -47.602931   1.000000
    2      -47.445314   1.000000
    3      -47.388148   1.000000
    4      -47.309761   1.000000
    5      -47.196865   1.000000
    6      -24.141640   1.000000
    7      -24.096280   1.000000
    8      -23.798992   1.000000
    9      -23.774946   1.000000
   10      -23.738677   1.000000
   11      -23.651258   1.000000
   12      -23.599413   1.000000
   13      -23.570653   1.000000
   14      -23.525232   1.000000
   15      -23.484736   1.000000
   16      -23.389185   1.000000
   17      -23.375513   1.000000
   18      -23.304933   1.000000
   19      -23.093765   1.000000
   20      -22.871273   1.000000
   21       -0.796730   1.000000
   22        0.557692   1.000000
   23        0.932063   1.000000
   24        1.829744   1.000000
   25        1.870733   1.000000
   26        1.899893   1.000000
   27        2.064096   1.000000
   28        2.109485   1.000000
   29        2.331679   1.000000
   30        2.362686   1.000000
   31        2.442231   1.000000
   32        2.518551   1.000000
   33        2.555784   1.000000
   34        2.654540   1.000000
   35        2.751181   1.000000
   36        2.843154   1.000000
   37        2.950278   1.000000
   38        3.007776   1.000000
   39        3.110931   1.000000
   40        3.134128   1.000000
   41        3.194320   1.000000
   42        3.327482   1.000000
   43        3.349211   1.000000
   44        3.407353   1.000000
   45        3.463283   1.000000
   46        3.518606   1.000000
   47        3.612550   1.000000
   48        3.675394   1.000000
   49        3.769908   1.000000
   50        3.826921   1.000000
   51        3.900197   1.000000
   52        3.961844   1.000000
   53        4.097329   1.000000
   54        4.173803   1.000000
   55        4.308290   1.000000
   56        4.373155   1.000000
   57        4.422403   1.000000
   58        4.541820   1.000000
   59        4.572631   1.000000
   60        4.624858   1.000000
   61        4.653622   1.000000
   62        4.690519   1.000000
   63        4.763117   1.000000
   64        4.798170   1.000000
   65        4.812195   1.000000
   66        4.912797   1.000000
   67        4.956326   1.000000
   68        5.032597   1.000000
   69        5.053906   1.000000
   70        5.093736   1.000000
   71        5.128113   1.000000
   72        5.174178   1.000000
   73        5.312797   1.000000
   74        5.340754   1.000000
   75        5.452623   1.000000
   76        5.561764   1.000000
   77        5.621473   1.000000
   78        5.651688   1.000000
   79        5.763592   1.000000
   80        5.780963   1.000000
   81        5.853862   1.000001
   82        5.892480   1.000004
   83        6.006816   1.000121
   84        6.085701   1.000887
   85        6.100905   1.001250
   86        6.175148   1.005485
   87        6.253437   1.017681
   88        6.370695   1.034019
   89        6.377682   1.032578
   90        6.498588   0.866959
   91        6.602150   0.480124
   92        6.621687   0.398279
   93        6.719822   0.074736
   94        6.726702   0.060309
   95        6.826054  -0.034310
   96        6.946641  -0.016592
   97        6.968705  -0.012364
   98        7.116002  -0.000758
   99        7.153582  -0.000302
  100        7.289960  -0.000006
  101        7.329825  -0.000001
  102        7.460794  -0.000000
  103        7.610131  -0.000000
  104        7.790843  -0.000000
  105        7.868157  -0.000000
  106        7.977764  -0.000000
  107        8.171056  -0.000000
  108        8.300866  -0.000000
  109        8.440480  -0.000000
  110        8.487705  -0.000000
  111        8.604001  -0.000000
  112        8.716054  -0.000000
  113        8.800338  -0.000000
  114        8.878815  -0.000000
  115        8.937139  -0.000000
  116        8.968505  -0.000000
  117        9.016557  -0.000000
  118        9.059813  -0.000000
  119        9.112396  -0.000000
  120        9.130469  -0.000000
 
  0.2000000E+00 -0.1387779E-16  0.0000000E+00  0.1600000E-01
    1      -47.602739   1.000000
    2      -47.438578   1.000000
    3      -47.385765   1.000000
    4      -47.309259   1.000000
    5      -47.206084   1.000000
    6      -24.118594   1.000000
    7      -24.016838   1.000000
    8      -23.792149   1.000000
    9      -23.775614   1.000000
   10      -23.741417   1.000000
   11      -23.651957   1.000000
   12      -23.600919   1.000000
   13      -23.568513   1.000000
   14      -23.525346   1.000000
   15      -23.492732   1.000000
   16      -23.389469   1.000000
   17      -23.385240   1.000000
   18      -23.310415   1.000000
   19      -23.095209   1.000000
   20      -22.991931   1.000000
   21       -0.474516   1.000000
   22        0.822920   1.000000
   23        1.208004   1.000000
   24        1.870581   1.000000
   25        2.054434   1.000000
   26        2.165339   1.000000
   27        2.232250   1.000000
   28        2.372475   1.000000
   29        2.437584   1.000000
   30        2.551609   1.000000
   31        2.585982   1.000000
   32        2.701619   1.000000
   33        2.759812   1.000000
   34        2.847225   1.000000
   35        2.934208   1.000000
   36        2.988541   1.000000
   37        3.057380   1.000000
   38        3.121289   1.000000
   39        3.182638   1.000000
   40        3.224469   1.000000
   41        3.290503   1.000000
   42        3.376585   1.000000
   43        3.474101   1.000000
   44        3.535648   1.000000
   45        3.624391   1.000000
   46        3.676176   1.000000
   47        3.709670   1.000000
   48        3.814240   1.000000
   49        3.829567   1.000000
   50        3.948407   1.000000
   51        4.016422   1.000000
   52        4.069419   1.000000
   53        4.163500   1.000000
   54        4.267843   1.000000
   55        4.340045   1.000000
   56        4.388844   1.000000
   57        4.475961   1.000000
   58        4.602344   1.000000
   59        4.639083   1.000000
   60        4.690729   1.000000
   61        4.754768   1.000000
   62        4.764509   1.000000
   63        4.804958   1.000000
   64        4.881972   1.000000
   65        4.919345   1.000000
   66        4.961374   1.000000
   67        5.021787   1.000000
   68        5.057409   1.000000
   69        5.108016   1.000000
   70        5.213920   1.000000
   71        5.233576   1.000000
   72        5.291291   1.000000
   73        5.319678   1.000000
   74        5.363154   1.000000
   75        5.416631   1.000000
   76        5.474249   1.000000
   77        5.539980   1.000000
   78        5.586714   1.000000
   79        5.672429   1.000000
   80        5.753677   1.000000
   81        5.823164   1.000000
   82        5.884119   1.000003
   83        5.936659   1.000015
   84        6.010353   1.000133
   85        6.033195   1.000245
   86        6.140504   1.002868
   87        6.157171   1.003955
   88        6.225510   1.012244
   89        6.256463   1.018333
   90        6.317720   1.031821
   91        6.431698   0.997046
   92        6.487971   0.895013
   93        6.556001   0.671282
   94        6.631669   0.357534
   95        6.664088   0.234638
   96        6.716503   0.082124
   97        6.760478   0.006181
   98        6.802290  -0.027459
   99        6.875006  -0.032210
  100        6.990650  -0.008909
  101        7.113019  -0.000812
  102        7.213986  -0.000058
  103        7.281002  -0.000007
  104        7.349902  -0.000001
  105        7.578687  -0.000000
  106        7.714371  -0.000000
  107        7.824073  -0.000000
  108        7.849993  -0.000000
  109        7.917865  -0.000000
  110        8.030223  -0.000000
  111        8.097019  -0.000000
  112        8.292042  -0.000000
  113        8.347342  -0.000000
  114        8.384827  -0.000000
  115        8.474977  -0.000000
  116        8.572136  -0.000000
  117        8.597698  -0.000000
  118        8.749718  -0.000000
  119        8.864397  -0.000000
  120        8.936252  -0.000000
 
  0.4000000E+00 -0.2775558E-16  0.0000000E+00  0.1600000E-01
    1      -47.602428   1.000000
    2      -47.427761   1.000000
    3      -47.380055   1.000000
    4      -47.308343   1.000000
    5      -47.222874   1.000000
    6      -24.117962   1.000000
    7      -23.824822   1.000000
    8      -23.777464   1.000000
    9      -23.746388   1.000000
   10      -23.704728   1.000000
   11      -23.653506   1.000000
   12      -23.604778   1.000000
   13      -23.557730   1.000000
   14      -23.525289   1.000000
   15      -23.505458   1.000000
   16      -23.404221   1.000000
   17      -23.392302   1.000000
   18      -23.339006   1.000000
   19      -23.275791   1.000000
   20      -23.091167   1.000000
   21        0.367454   1.000000
   22        1.272929   1.000000
   23        1.801831   1.000000
   24        1.958103   1.000000
   25        2.141903   1.000000
   26        2.365496   1.000000
   27        2.431296   1.000000
   28        2.622685   1.000000
   29        2.757034   1.000000
   30        2.804607   1.000000
   31        2.933397   1.000000
   32        3.010836   1.000000
   33        3.062671   1.000000
   34        3.120888   1.000000
   35        3.204648   1.000000
   36        3.246755   1.000000
   37        3.305930   1.000000
   38        3.371578   1.000000
   39        3.424159   1.000000
   40        3.462232   1.000000
   41        3.546567   1.000000
   42        3.663430   1.000000
   43        3.722014   1.000000
   44        3.750978   1.000000
   45        3.815413   1.000000
   46        3.838347   1.000000
   47        3.947260   1.000000
   48        4.036031   1.000000
   49        4.161024   1.000000
   50        4.195911   1.000000
   51        4.273586   1.000000
   52        4.310256   1.000000
   53        4.360170   1.000000
   54        4.399683   1.000000
   55        4.459214   1.000000
   56        4.513396   1.000000
   57        4.582417   1.000000
   58        4.605227   1.000000
   59        4.635486   1.000000
   60        4.704637   1.000000
   61        4.771974   1.000000
   62        4.807779   1.000000
   63        4.865254   1.000000
   64        4.884929   1.000000
   65        4.973696   1.000000
   66        4.990833   1.000000
   67        5.039587   1.000000
   68        5.078103   1.000000
   69        5.133628   1.000000
   70        5.198030   1.000000
   71        5.279024   1.000000
   72        5.314237   1.000000
   73        5.357793   1.000000
   74        5.377951   1.000000
   75        5.443676   1.000000
   76        5.469800   1.000000
   77        5.566194   1.000000
   78        5.594207   1.000000
   79        5.652492   1.000000
   80        5.716388   1.000000
   81        5.783621   1.000000
   82        5.822574   1.000000
   83        5.888983   1.000003
   84        5.919601   1.000009
   85        5.974500   1.000048
   86        6.011351   1.000137
   87        6.034585   1.000254
   88        6.108772   1.001486
   89        6.156566   1.003910
   90        6.196848   1.007917
   91        6.225608   1.012261
   92        6.261451   1.019427
   93        6.299417   1.028088
   94        6.377352   1.032659
   95        6.405443   1.020468
   96        6.443373   0.982080
   97        6.526355   0.780797
   98        6.611122   0.442301
   99        6.631105   0.359811
  100        6.727029   0.059653
  101        6.742808   0.031123
  102        6.813591  -0.031602
  103        6.939759  -0.018047
  104        7.020574  -0.005406
  105        7.065206  -0.002308
  106        7.165333  -0.000223
  107        7.318048  -0.000002
  108        7.450440  -0.000000
  109        7.503581  -0.000000
  110        7.604506  -0.000000
  111        7.705729  -0.000000
  112        7.793421  -0.000000
  113        7.899096  -0.000000
  114        8.074638  -0.000000
  115        8.101263  -0.000000
  116        8.225552  -0.000000
  117        8.315727  -0.000000
  118        8.430977  -0.000000
  119        8.462479  -0.000000
  120        8.548211  -0.000000
 
  0.0000000E+00  0.2000000E+00  0.1387779E-16  0.1600000E-01
    1      -47.602931   1.000000
    2      -47.445304   1.000000
    3      -47.388140   1.000000
    4      -47.309755   1.000000
    5      -47.196861   1.000000
    6      -24.141653   1.000000
    7      -24.096311   1.000000
    8      -23.799068   1.000000
    9      -23.774962   1.000000
   10      -23.738676   1.000000
   11      -23.651372   1.000000
   12      -23.599607   1.000000
   13      -23.570858   1.000000
   14      -23.525355   1.000000
   15      -23.484790   1.000000
   16      -23.389242   1.000000
   17      -23.375637   1.000000
   18      -23.304961   1.000000
   19      -23.093775   1.000000
   20      -22.871282   1.000000
   21       -0.655908   1.000000
   22        0.626632   1.000000
   23        1.004564   1.000000
   24        1.396805   1.000000
   25        1.797530   1.000000
   26        1.981112   1.000000
   27        2.109978   1.000000
   28        2.218919   1.000000
   29        2.307512   1.000000
   30        2.382128   1.000000
   31        2.503815   1.000000
   32        2.542790   1.000000
   33        2.561243   1.000000
   34        2.637997   1.000000
   35        2.698913   1.000000
   36        2.775937   1.000000
   37        2.842301   1.000000
   38        2.966834   1.000000
   39        3.024061   1.000000
   40        3.150376   1.000000
   41        3.201992   1.000000
   42        3.317193   1.000000
   43        3.405930   1.000000
   44        3.519303   1.000000
   45        3.541486   1.000000
   46        3.598574   1.000000
   47        3.631847   1.000000
   48        3.681963   1.000000
   49        3.759762   1.000000
   50        3.861319   1.000000
   51        3.958660   1.000000
   52        4.001197   1.000000
   53        4.081412   1.000000
   54        4.261751   1.000000
   55        4.306003   1.000000
   56        4.377693   1.000000
   57        4.430795   1.000000
   58        4.541624   1.000000
   59        4.599420   1.000000
   60        4.685546   1.000000
   61        4.733735   1.000000
   62        4.779915   1.000000
   63        4.791563   1.000000
   64        4.825499   1.000000
   65        4.858363   1.000000
   66        4.939564   1.000000
   67        4.981054   1.000000
   68        5.044345   1.000000
   69        5.071112   1.000000
   70        5.154830   1.000000
   71        5.217611   1.000000
   72        5.290708   1.000000
   73        5.305101   1.000000
   74        5.370699   1.000000
   75        5.483001   1.000000
   76        5.502183   1.000000
   77        5.620114   1.000000
   78        5.674047   1.000000
   79        5.729395   1.000000
   80        5.801435   1.000000
   81        5.840545   1.000001
   82        5.922042   1.000010
   83        5.957780   1.000030
   84        5.990032   1.000076
   85        6.040655   1.000297
   86        6.101677   1.001272
   87        6.172937   1.005274
   88        6.230545   1.013140
   89        6.329745   1.033757
   90        6.384336   1.030662
   91        6.418907   1.010116
   92        6.513548   0.822749
   93        6.622695   0.394120
   94        6.668348   0.219886
   95        6.771273  -0.005676
   96        6.921646  -0.022099
   97        7.045425  -0.003417
   98        7.137686  -0.000450
   99        7.318431  -0.000002
  100        7.361832  -0.000000
  101        7.404466  -0.000000
  102        7.487324  -0.000000
  103        7.556125  -0.000000
  104        7.645804  -0.000000
  105        7.773111  -0.000000
  106        7.824627  -0.000000
  107        7.914949  -0.000000
  108        8.056591  -0.000000
  109        8.174986  -0.000000
  110        8.381149  -0.000000
  111        8.445101  -0.000000
  112        8.533583  -0.000000
  113        8.648237  -0.000000
  114        8.657455  -0.000000
  115        8.768760  -0.000000
  116        8.829636  -0.000000
  117        8.875666  -0.000000
  118        8.913466  -0.000000
  119        8.985576  -0.000000
  120        9.000780  -0.000000
 
  0.2000000E+00  0.2000000E+00 -0.4857226E-16  0.1600000E-01
    1      -47.602739   1.000000
    2      -47.438586   1.000000
    3      -47.385773   1.000000
    4      -47.309266   1.000000
    5      -47.206088   1.000000
    6      -24.118578   1.000000
    7      -24.016805   1.000000
    8      -23.792091   1.000000
    9      -23.775597   1.000000
   10      -23.741416   1.000000
   11      -23.651891   1.000000
   12      -23.600702   1.000000
   13      -23.568323   1.000000
   14      -23.525218   1.000000
   15      -23.492671   1.000000
   16      -23.389396   1.000000
   17      -23.385128   1.000000
   18      -23.310386   1.000000
   19      -23.095196   1.000000
   20      -22.991912   1.000000
   21       -0.474118   1.000000
   22        0.785423   1.000000
   23        1.220261   1.000000
   24        1.824663   1.000000
   25        1.991627   1.000000
   26        2.115603   1.000000
   27        2.206407   1.000000
   28        2.282921   1.000000
   29        2.402306   1.000000
   30        2.523582   1.000000
   31        2.609678   1.000000
   32        2.684271   1.000000
   33        2.728758   1.000000
   34        2.842407   1.000000
   35        2.892116   1.000000
   36        2.932220   1.000000
   37        3.023117   1.000000
   38        3.073609   1.000000
   39        3.198990   1.000000
   40        3.251719   1.000000
   41        3.380170   1.000000
   42        3.421567   1.000000
   43        3.468343   1.000000
   44        3.569825   1.000000
   45        3.625204   1.000000
   46        3.692297   1.000000
   47        3.739608   1.000000
   48        3.772157   1.000000
   49        3.836724   1.000000
   50        3.944626   1.000000
   51        4.049050   1.000000
   52        4.100991   1.000000
   53        4.214087   1.000000
   54        4.248089   1.000000
   55        4.346223   1.000000
   56        4.399405   1.000000
   57        4.466382   1.000000
   58        4.575507   1.000000
   59        4.610299   1.000000
   60        4.695307   1.000000
   61        4.728125   1.000000
   62        4.778285   1.000000
   63        4.820650   1.000000
   64        4.836087   1.000000
   65        4.857694   1.000000
   66        4.932119   1.000000
   67        4.969415   1.000000
   68        5.050592   1.000000
   69        5.088085   1.000000
   70        5.126659   1.000000
   71        5.179278   1.000000
   72        5.241688   1.000000
   73        5.287580   1.000000
   74        5.357058   1.000000
   75        5.421894   1.000000
   76        5.515513   1.000000
   77        5.543328   1.000000
   78        5.563089   1.000000
   79        5.634710   1.000000
   80        5.727051   1.000000
   81        5.783639   1.000000
   82        5.885250   1.000003
   83        5.945982   1.000021
   84        6.008168   1.000126
   85        6.041388   1.000302
   86        6.098244   1.001179
   87        6.175727   1.005541
   88        6.272335   1.021887
   89        6.303545   1.028986
   90        6.379334   1.032154
   91        6.448223   0.974958
   92        6.505617   0.846854
   93        6.566945   0.627431
   94        6.647429   0.295669
   95        6.730365   0.053111
   96        6.761908   0.004468
   97        6.844470  -0.035442
   98        6.892400  -0.028762
   99        6.913495  -0.023981
  100        7.030156  -0.004551
  101        7.076387  -0.001830
  102        7.178448  -0.000157
  103        7.344593  -0.000001
  104        7.437708  -0.000000
  105        7.544932  -0.000000
  106        7.565445  -0.000000
  107        7.737724  -0.000000
  108        7.897332  -0.000000
  109        8.147555  -0.000000
  110        8.240690  -0.000000
  111        8.447467  -0.000000
  112        8.574748  -0.000000
  113        8.691497  -0.000000
  114        8.737947  -0.000000
  115        8.774663  -0.000000
  116        8.818315  -0.000000
  117        8.920815  -0.000000
  118        8.983314  -0.000000
  119        9.023536  -0.000000
  120        9.083730  -0.000000
 
  0.4000000E+00  0.2000000E+00 -0.5551115E-16  0.1600000E-01
    1      -47.602428   1.000000
    2      -47.427776   1.000000
    3      -47.380067   1.000000
    4      -47.308353   1.000000
    5      -47.222880   1.000000
    6      -24.117931   1.000000
    7      -23.824748   1.000000
    8      -23.777437   1.000000
    9      -23.746385   1.000000
   10      -23.704632   1.000000
   11      -23.653415   1.000000
   12      -23.604368   1.000000
   13      -23.557450   1.000000
   14      -23.525092   1.000000
   15      -23.505337   1.000000
   16      -23.404003   1.000000
   17      -23.392265   1.000000
   18      -23.338952   1.000000
   19      -23.275757   1.000000
   20      -23.091145   1.000000
   21        0.266228   1.000000
   22        1.224658   1.000000
   23        1.706707   1.000000
   24        1.869405   1.000000
   25        2.019551   1.000000
   26        2.204847   1.000000
   27        2.428883   1.000000
   28        2.730264   1.000000
   29        2.788150   1.000000
   30        2.921258   1.000000
   31        2.956279   1.000000
   32        3.028926   1.000000
   33        3.135390   1.000000
   34        3.154047   1.000000
   35        3.227436   1.000000
   36        3.293600   1.000000
   37        3.321597   1.000000
   38        3.375201   1.000000
   39        3.417281   1.000000
   40        3.474906   1.000000
   41        3.559075   1.000000
   42        3.613340   1.000000
   43        3.647420   1.000000
   44        3.727906   1.000000
   45        3.770736   1.000000
   46        3.844872   1.000000
   47        3.900652   1.000000
   48        3.942871   1.000000
   49        4.026478   1.000000
   50        4.126454   1.000000
   51        4.184977   1.000000
   52        4.252667   1.000000
   53        4.304157   1.000000
   54        4.401180   1.000000
   55        4.446552   1.000000
   56        4.472118   1.000000
   57        4.574346   1.000000
   58        4.616824   1.000000
   59        4.673606   1.000000
   60        4.703126   1.000000
   61        4.741122   1.000000
   62        4.799072   1.000000
   63        4.824700   1.000000
   64        4.899163   1.000000
   65        4.965859   1.000000
   66        4.998767   1.000000
   67        5.046562   1.000000
   68        5.111396   1.000000
   69        5.160306   1.000000
   70        5.240714   1.000000
   71        5.247230   1.000000
   72        5.326329   1.000000
   73        5.368628   1.000000
   74        5.427136   1.000000
   75        5.459564   1.000000
   76        5.511131   1.000000
   77        5.572346   1.000000
   78        5.595677   1.000000
   79        5.681563   1.000000
   80        5.744743   1.000000
   81        5.784096   1.000000
   82        5.801837   1.000000
   83        5.829290   1.000000
   84        5.888200   1.000003
   85        5.907872   1.000006
   86        5.975586   1.000050
   87        6.034097   1.000251
   88        6.052736   1.000403
   89        6.095611   1.001111
   90        6.138239   1.002742
   91        6.149675   1.003430
   92        6.214177   1.010376
   93        6.251306   1.017229
   94        6.317104   1.031709
   95        6.377319   1.032667
   96        6.440951   0.985434
   97        6.520635   0.799982
   98        6.574074   0.598170
   99        6.618465   0.411624
  100        6.731982   0.050039
  101        6.754103   0.014360
  102        6.891749  -0.028902
  103        6.963222  -0.013347
  104        7.084940  -0.001524
  105        7.336087  -0.000001
  106        7.496587  -0.000000
  107        7.533738  -0.000000
  108        7.633446  -0.000000
  109        7.813725  -0.000000
  110        7.859689  -0.000000
  111        8.014964  -0.000000
  112        8.080867  -0.000000
  113        8.185903  -0.000000
  114        8.264145  -0.000000
  115        8.324204  -0.000000
  116        8.370036  -0.000000
  117        8.442195  -0.000000
  118        8.472615  -0.000000
  119        8.584947  -0.000000
  120        8.654024  -0.000000
 
 -0.4000000E+00  0.2000000E+00 -0.3908332E-16  0.1600000E-01
    1      -47.602427   1.000000
    2      -47.427760   1.000000
    3      -47.380056   1.000000
    4      -47.308343   1.000000
    5      -47.222874   1.000000
    6      -24.117963   1.000000
    7      -23.824825   1.000000
    8      -23.777469   1.000000
    9      -23.746386   1.000000
   10      -23.704737   1.000000
   11      -23.653516   1.000000
   12      -23.604790   1.000000
   13      -23.557735   1.000000
   14      -23.525289   1.000000
   15      -23.505460   1.000000
   16      -23.404220   1.000000
   17      -23.392299   1.000000
   18      -23.338994   1.000000
   19      -23.275793   1.000000
   20      -23.091167   1.000000
   21        0.635327   1.000000
   22        1.234681   1.000000
   23        1.503258   1.000000
   24        1.966724   1.000000
   25        2.014758   1.000000
   26        2.296393   1.000000
   27        2.499107   1.000000
   28        2.627262   1.000000
   29        2.739244   1.000000
   30        2.822405   1.000000
   31        2.877412   1.000000
   32        3.007411   1.000000
   33        3.051593   1.000000
   34        3.116437   1.000000
   35        3.210689   1.000000
   36        3.243520   1.000000
   37        3.282216   1.000000
   38        3.352531   1.000000
   39        3.409571   1.000000
   40        3.478730   1.000000
   41        3.538169   1.000000
   42        3.628258   1.000000
   43        3.705780   1.000000
   44        3.814527   1.000000
   45        3.859643   1.000000
   46        3.940026   1.000000
   47        4.031375   1.000000
   48        4.079907   1.000000
   49        4.166238   1.000000
   50        4.187973   1.000000
   51        4.270938   1.000000
   52        4.307291   1.000000
   53        4.409611   1.000000
   54        4.434972   1.000000
   55        4.504290   1.000000
   56        4.526441   1.000000
   57        4.612613   1.000000
   58        4.634975   1.000000
   59        4.676374   1.000000
   60        4.704371   1.000000
   61        4.744368   1.000000
   62        4.778289   1.000000
   63        4.822297   1.000000
   64        4.876486   1.000000
   65        4.935121   1.000000
   66        4.983674   1.000000
   67        5.027424   1.000000
   68        5.050922   1.000000
   69        5.120846   1.000000
   70        5.146199   1.000000
   71        5.201330   1.000000
   72        5.235279   1.000000
   73        5.325879   1.000000
   74        5.378012   1.000000
   75        5.442815   1.000000
   76        5.479095   1.000000
   77        5.579755   1.000000
   78        5.609085   1.000000
   79        5.684166   1.000000
   80        5.734183   1.000000
   81        5.759129   1.000000
   82        5.797812   1.000000
   83        5.859492   1.000001
   84        5.876025   1.000002
   85        5.941615   1.000018
   86        5.959038   1.000031
   87        6.019542   1.000171
   88        6.101959   1.001280
   89        6.158106   1.004025
   90        6.196149   1.007828
   91        6.263438   1.019869
   92        6.284395   1.024673
   93        6.313681   1.031063
   94        6.355534   1.035422
   95        6.398746   1.024442
   96        6.495749   0.874737
   97        6.563913   0.639724
   98        6.632768   0.353113
   99        6.671590   0.208910
  100        6.733170   0.047822
  101        6.827504  -0.034514
  102        6.911368  -0.024474
  103        6.956600  -0.014596
  104        7.028735  -0.004670
  105        7.094511  -0.001236
  106        7.157156  -0.000276
  107        7.241943  -0.000026
  108        7.326742  -0.000002
  109        7.517268  -0.000000
  110        7.639523  -0.000000
  111        7.818876  -0.000000
  112        7.911775  -0.000000
  113        8.062160  -0.000000
  114        8.121197  -0.000000
  115        8.164504  -0.000000
  116        8.262917  -0.000000
  117        8.314069  -0.000000
  118        8.382727  -0.000000
  119        8.454986  -0.000000
  120        8.498562  -0.000000
 
 -0.2000000E+00  0.2000000E+00  0.1006140E-15  0.1600000E-01
    1      -47.602738   1.000000
    2      -47.438563   1.000000
    3      -47.385752   1.000000
    4      -47.309249   1.000000
    5      -47.206077   1.000000
    6      -24.118623   1.000000
    7      -24.016890   1.000000
    8      -23.792262   1.000000
    9      -23.775639   1.000000
   10      -23.741415   1.000000
   11      -23.652101   1.000000
   12      -23.601300   1.000000
   13      -23.568819   1.000000
   14      -23.525549   1.000000
   15      -23.492829   1.000000
   16      -23.389576   1.000000
   17      -23.385415   1.000000
   18      -23.310470   1.000000
   19      -23.095229   1.000000
   20      -22.991947   1.000000
   21       -0.215693   1.000000
   22        0.889405   1.000000
   23        1.242688   1.000000
   24        1.505352   1.000000
   25        1.929304   1.000000
   26        2.231271   1.000000
   27        2.345602   1.000000
   28        2.441485   1.000000
   29        2.520694   1.000000
   30        2.604306   1.000000
   31        2.645710   1.000000
   32        2.686812   1.000000
   33        2.803271   1.000000
   34        2.830190   1.000000
   35        2.865606   1.000000
   36        2.933936   1.000000
   37        2.973311   1.000000
   38        3.040656   1.000000
   39        3.086162   1.000000
   40        3.175286   1.000000
   41        3.256473   1.000000
   42        3.353526   1.000000
   43        3.480252   1.000000
   44        3.529043   1.000000
   45        3.626581   1.000000
   46        3.706794   1.000000
   47        3.817720   1.000000