       N       E                     dE             d eps       ncg     rms          rms(c)
DAV:   1     0.193886912780E+04    0.19389E+04   -0.86037E+04 15120   0.167E+03
DAV:   2     0.277560158533E+02   -0.19111E+04   -0.18405E+04 15128   0.483E+02
DAV:   3    -0.309843540783E+03   -0.33760E+03   -0.31721E+03 26728   0.171E+02
DAV:   4    -0.349706993861E+03   -0.39863E+02   -0.36554E+02 23784   0.545E+01
DAV:   5    -0.353793321750E+03   -0.40863E+01   -0.39968E+01 28328   0.196E+01    0.761E+01
DAV:   6    -0.345994708165E+03    0.77986E+01   -0.11556E+02 21344   0.316E+01    0.370E+01
DAV:   7    -0.353863728859E+03   -0.78690E+01   -0.30037E+02 21808   0.691E+01    0.280E+01
DAV:   8    -0.340806595591E+03    0.13057E+02   -0.59117E+01 22296   0.257E+01    0.163E+01
DAV:   9    -0.333868066408E+03    0.69385E+01   -0.18651E+01 22800   0.136E+01    0.106E+01
DAV:  10    -0.331976409191E+03    0.18917E+01   -0.84430E+00 22296   0.792E+00    0.731E+00
DAV:  11    -0.331355330977E+03    0.62108E+00   -0.34308E+00 23088   0.510E+00    0.414E+00
DAV:  12    -0.331255223773E+03    0.10011E+00   -0.14448E+00 23096   0.350E+00    0.277E+00
DAV:  13    -0.331232984026E+03    0.22240E-01   -0.10303E+00 23032   0.296E+00    0.202E+00
DAV:  14    -0.331192571712E+03    0.40412E-01   -0.55123E-01 22368   0.235E+00    0.131E+00
DAV:  15    -0.331170423734E+03    0.22148E-01   -0.18157E-01 22456   0.138E+00    0.639E-01
DAV:  16    -0.331169250684E+03    0.11730E-02   -0.44790E-02 23208   0.616E-01    0.514E-01
DAV:  17    -0.331167030936E+03    0.22197E-02   -0.25932E-02 22208   0.502E-01    0.224E-01
DAV:  18    -0.331166795581E+03    0.23535E-03   -0.82477E-03 22072   0.280E-01    0.169E-01
DAV:  19    -0.331166516032E+03    0.27955E-03   -0.44499E-03 21160   0.187E-01    0.913E-02
DAV:  20    -0.331166433276E+03    0.82756E-04   -0.86112E-04 18280   0.903E-02
   1 F= -.33116643E+03 E0= -.33116261E+03  d E =-.331166E+03
       N       E                     dE             d eps       ncg     rms          rms(c)
DAV:   1    -0.333257557121E+03   -0.20910E+01   -0.16950E+02 18696   0.534E+01    0.152E+01
DAV:   2    -0.333847227519E+03   -0.58967E+00   -0.31955E+01 23344   0.239E+01    0.103E+01
DAV:   3    -0.332168492121E+03    0.16787E+01   -0.17194E+01 22016   0.130E+01    0.713E+00
DAV:   4    -0.332052749502E+03    0.11574E+00   -0.10675E+01 23504   0.107E+01    0.538E+00
DAV:   5    -0.331566105483E+03    0.48664E+00   -0.37396E+00 22824   0.667E+00    0.281E+00
DAV:   6    -0.331435814796E+03    0.13029E+00   -0.99676E-01 24424   0.330E+00    0.177E+00
DAV:   7    -0.331450432741E+03   -0.14618E-01   -0.50803E-01 23616   0.200E+00    0.146E+00
DAV:   8    -0.331442711734E+03    0.77210E-02   -0.17542E-01 23560   0.126E+00    0.977E-01
DAV:   9    -0.331445921909E+03   -0.32102E-02   -0.73194E-02 22976   0.891E-01    0.756E-01
DAV:  10    -0.331449952159E+03   -0.40303E-02   -0.62618E-02 22720   0.756E-01    0.545E-01
DAV:  11    -0.331450106276E+03   -0.15412E-03   -0.34482E-02 23456   0.571E-01    0.308E-01
DAV:  12    -0.331449822613E+03    0.28366E-03   -0.12033E-02 24296   0.337E-01    0.165E-01
DAV:  13    -0.331449948653E+03   -0.12604E-03   -0.43006E-03 23992   0.181E-01    0.105E-01
DAV:  14    -0.331450000737E+03   -0.52084E-04   -0.16958E-03 21496   0.122E-01    0.656E-02
DAV:  15    -0.331449965101E+03    0.35636E-04   -0.49052E-04 15400   0.749E-02
   2 F= -.33144997E+03 E0= -.33144804E+03  d E =-.283532E+00
       N       E                     dE             d eps       ncg     rms          rms(c)
DAV:   1    -0.331811135722E+03   -0.36113E+00   -0.22258E+01 18760   0.194E+01    0.559E+00
DAV:   2    -0.331911358147E+03   -0.10022E+00   -0.41835E+00 26032   0.859E+00    0.442E+00
DAV:   3    -0.331752984789E+03    0.15837E+00   -0.35446E+00 22200   0.602E+00    0.300E+00
DAV:   4    -0.331673000861E+03    0.79984E-01   -0.12439E+00 24024   0.352E+00    0.188E+00
DAV:   5    -0.331610831379E+03    0.62169E-01   -0.53016E-01 22800   0.241E+00    0.107E+00
DAV:   6    -0.331592897555E+03    0.17934E-01   -0.17851E-01 23464   0.141E+00    0.702E-01
DAV:   7    -0.331593219834E+03   -0.32228E-03   -0.82169E-02 23888   0.773E-01    0.545E-01
DAV:   8    -0.331592077460E+03    0.11424E-02   -0.24687E-02 23088   0.491E-01    0.385E-01
DAV:   9    -0.331592059076E+03    0.18384E-04   -0.11285E-02 22048   0.326E-01    0.288E-01
DAV:  10    -0.331592670610E+03   -0.61153E-03   -0.85848E-03 22208   0.271E-01    0.215E-01
DAV:  11    -0.331592769672E+03   -0.99062E-04   -0.54451E-03 23576   0.218E-01    0.126E-01
DAV:  12    -0.331592673589E+03    0.96082E-04   -0.19388E-03 21880   0.130E-01    0.615E-02
DAV:  13    -0.331592668299E+03    0.52901E-05   -0.64705E-04 17456   0.762E-02
   3 F= -.33159267E+03 E0= -.33159027E+03  d E =-.426235E+00
       N       E                     dE             d eps       ncg     rms          rms(c)
DAV:   1    -0.331772296073E+03   -0.17962E+00   -0.10238E+02 16128   0.327E+01    0.384E+00
DAV:   2    -0.332197076750E+03   -0.42478E+00   -0.61444E+00 22192   0.101E+01    0.342E+00
DAV:   3    -0.332132417612E+03    0.64659E-01   -0.19727E+00 23160   0.478E+00    0.244E+00
DAV:   4    -0.332070521859E+03    0.61896E-01   -0.55663E-01 22656   0.240E+00    0.154E+00
DAV:   5    -0.332054980953E+03    0.15541E-01   -0.16002E-01 23080   0.139E+00    0.108E+00
DAV:   6    -0.332054874353E+03    0.10660E-03   -0.16188E-01 23840   0.131E+00    0.868E-01
DAV:   7    -0.332043750346E+03    0.11124E-01   -0.87373E-02 24032   0.960E-01    0.476E-01
DAV:   8    -0.332041927762E+03    0.18226E-02   -0.31752E-02 23888   0.520E-01    0.331E-01
DAV:   9    -0.332041449710E+03    0.47805E-03   -0.97168E-03 21448   0.279E-01    0.235E-01
DAV:  10    -0.332041299235E+03    0.15047E-03   -0.25453E-03 21536   0.155E-01    0.152E-01
DAV:  11    -0.332041505001E+03   -0.20577E-03   -0.26288E-03 21040   0.164E-01    0.126E-01
DAV:  12    -0.332041322941E+03    0.18206E-03   -0.16867E-03 19984   0.136E-01    0.477E-02
DAV:  13    -0.332041285527E+03    0.37415E-04   -0.39940E-04 14240   0.738E-02
   4 F= -.33204129E+03 E0= -.33203996E+03  d E =-.448617E+00
       N       E                     dE             d eps       ncg     rms          rms(c)
DAV:   1    -0.332034357820E+03    0.69651E-02   -0.19613E+01 15992   0.142E+01    0.165E+00
DAV:   2    -0.332122568768E+03   -0.88211E-01   -0.12861E+00 22832   0.461E+00    0.152E+00
DAV:   3    -0.332107033241E+03    0.15536E-01   -0.39403E-01 22008   0.209E+00    0.102E+00
DAV:   4    -0.332095392361E+03    0.11641E-01   -0.10055E-01 22944   0.107E+00    0.645E-01
DAV:   5    -0.332092288519E+03    0.31038E-02   -0.28742E-02 22512   0.616E-01    0.448E-01
DAV:   6    -0.332092453121E+03   -0.16460E-03   -0.31136E-02 23728   0.569E-01    0.373E-01
DAV:   7    -0.332090311111E+03    0.21420E-02   -0.16473E-02 23952   0.399E-01    0.178E-01
DAV:   8    -0.332090157592E+03    0.15352E-03   -0.44287E-03 22304   0.191E-01    0.139E-01
DAV:   9    -0.332090080960E+03    0.76633E-04   -0.13771E-03 20080   0.108E-01    0.982E-02
DAV:  10    -0.332090055401E+03    0.25559E-04   -0.44048E-04 14016   0.764E-02
   5 F= -.33209006E+03 E0= -.33208890E+03  d E =-.497387E+00
       N       E                     dE             d eps       ncg     rms          rms(c)
DAV:   1    -0.332141712782E+03   -0.51632E-01   -0.89830E+00 15120   0.108E+01    0.228E+00
DAV:   2    -0.332189796909E+03   -0.48084E-01   -0.96184E-01 21944   0.382E+00    0.172E+00
DAV:   3    -0.332179245673E+03    0.10551E-01   -0.59933E-01 22544   0.255E+00    0.135E+00
DAV:   4    -0.332156322822E+03    0.22923E-01   -0.19030E-01 23208   0.152E+00    0.721E-01
DAV:   5    -0.332147228287E+03    0.90945E-02   -0.87645E-02 22840   0.988E-01    0.371E-01
DAV:   6    -0.332145363079E+03    0.18652E-02   -0.26586E-02 24048   0.513E-01    0.248E-01
DAV:   7    -0.332145211924E+03    0.15116E-03   -0.10136E-02 23864   0.304E-01    0.194E-01
DAV:   8    -0.332144897619E+03    0.31430E-03   -0.32527E-03 21208   0.177E-01    0.128E-01
DAV:   9    -0.332144934108E+03   -0.36489E-04   -0.10470E-03 19672   0.929E-02    0.957E-02
DAV:  10    -0.332145022601E+03   -0.88493E-04   -0.72501E-04 17568   0.896E-02
   6 F= -.33214502E+03 E0= -.33214421E+03  d E =-.549672E-01
       N       E                     dE             d eps       ncg     rms          rms(c)
DAV:   1    -0.332146926566E+03   -0.19925E-02   -0.73595E-01 15160   0.309E+00    0.650E-01
DAV:   2    -0.332151009511E+03   -0.40829E-02   -0.80942E-02 22056   0.112E+00    0.503E-01
DAV:   3    -0.332149591691E+03    0.14178E-02   -0.49585E-02 22032   0.713E-01    0.380E-01
DAV:   4    -0.332147862193E+03    0.17295E-02   -0.15957E-02 22456   0.433E-01    0.206E-01
DAV:   5    -0.332147150616E+03    0.71158E-03   -0.71970E-03 22784   0.283E-01    0.110E-01
DAV:   6    -0.332146978723E+03    0.17189E-03   -0.21512E-03 21544   0.145E-01    0.709E-02
DAV:   7    -0.332146966948E+03    0.11775E-04   -0.71886E-04 17312   0.860E-02
   7 F= -.33214697E+03 E0= -.33214626E+03  d E =-.569115E-01
       N       E                     dE             d eps       ncg     rms          rms(c)
DAV:   1    -0.332177127909E+03   -0.30149E-01   -0.40907E+00 15656   0.696E+00    0.117E+00
DAV:   2    -0.332193559929E+03   -0.16432E-01   -0.34951E-01 21888   0.221E+00    0.816E-01
DAV:   3    -0.332190398621E+03    0.31613E-02   -0.14192E-01 22072   0.126E+00    0.684E-01
DAV:   4    -0.332184107495E+03    0.62911E-02   -0.53562E-02 22584   0.793E-01    0.386E-01
DAV:   5    -0.332182303975E+03    0.18035E-02   -0.22472E-02 22536   0.504E-01    0.244E-01
DAV:   6    -0.332181606647E+03    0.69733E-03   -0.10383E-02 23928   0.319E-01    0.153E-01
DAV:   7    -0.332181486100E+03    0.12055E-03   -0.49406E-03 22896   0.214E-01    0.121E-01
DAV:   8    -0.332181329198E+03    0.15690E-03   -0.15772E-03 20480   0.120E-01    0.708E-02
DAV:   9    -0.332181321202E+03    0.79957E-05   -0.27002E-04 12120   0.605E-02
   8 F= -.33218132E+03 E0= -.33218077E+03  d E =-.343543E-01
       N       E                     dE             d eps       ncg     rms          rms(c)
DAV:   1    -0.332187917603E+03   -0.65884E-02   -0.53974E+00 15760   0.800E+00    0.133E+00
DAV:   2    -0.332209368808E+03   -0.21451E-01   -0.44889E-01 21656   0.253E+00    0.927E-01
DAV:   3    -0.332205410280E+03    0.39585E-02   -0.18414E-01 22120   0.145E+00    0.772E-01
DAV:   4    -0.332197281424E+03    0.81289E-02   -0.70144E-02 22568   0.912E-01    0.428E-01
DAV:   5    -0.332194965483E+03    0.23159E-02   -0.28463E-02 22528   0.569E-01    0.265E-01
DAV:   6    -0.332194209272E+03    0.75621E-03   -0.12074E-02 24192   0.346E-01    0.169E-01
DAV:   7    -0.332194101256E+03    0.10802E-03   -0.56852E-03 22680   0.228E-01    0.136E-01
DAV:   8    -0.332193949077E+03    0.15218E-03   -0.17043E-03 20664   0.125E-01    0.870E-02
DAV:   9    -0.332193963764E+03   -0.14687E-04   -0.31593E-04 12656   0.643E-02
   9 F= -.33219396E+03 E0= -.33219358E+03  d E =-.469968E-01
       N       E                     dE             d eps       ncg     rms          rms(c)
DAV:   1    -0.332201495023E+03   -0.75459E-02   -0.73781E-01 16064   0.288E+00    0.261E-01
DAV:   2    -0.332205261408E+03   -0.37664E-02   -0.45690E-02 21296   0.868E-01    0.219E-01
DAV:   3    -0.332204954755E+03    0.30665E-03   -0.75740E-03 22288   0.325E-01    0.145E-01
DAV:   4    -0.332204828546E+03    0.12621E-03   -0.25131E-03 21016   0.170E-01    0.107E-01
DAV:   5    -0.332204772240E+03    0.56307E-04   -0.13122E-03 18880   0.118E-01    0.825E-02
DAV:   6    -0.332204721063E+03    0.51176E-04   -0.78892E-04 17208   0.979E-02
  10 F= -.33220472E+03 E0= -.33220439E+03  d E =-.107573E-01
       N       E                     dE             d eps       ncg     rms          rms(c)
DAV:   1    -0.332194604957E+03    0.10167E-01   -0.66284E+00 16256   0.863E+00    0.751E-01
DAV:   2    -0.332227948168E+03   -0.33343E-01   -0.40155E-01 21936   0.257E+00    0.640E-01
DAV:   3    -0.332225280220E+03    0.26679E-02   -0.63145E-02 22856   0.916E-01    0.460E-01
DAV:   4    -0.332224090631E+03    0.11896E-02   -0.22990E-02 23336   0.491E-01    0.333E-01
DAV:   5    -0.332223329828E+03    0.76080E-03   -0.10267E-02 22464   0.331E-01    0.233E-01
DAV:   6    -0.332223024499E+03    0.30533E-03   -0.75540E-03 23528   0.285E-01    0.168E-01
DAV:   7    -0.332222591257E+03    0.43324E-03   -0.37691E-03 23128   0.192E-01    0.724E-02
DAV:   8    -0.332222534147E+03    0.57110E-04   -0.69921E-04 17488   0.896E-02
  11 F= -.33222253E+03 E0= -.33222232E+03  d E =-.285704E-01
       N       E                     dE             d eps       ncg     rms          rms(c)
DAV:   1    -0.332220677099E+03    0.19142E-02   -0.68647E-01 16024   0.278E+00    0.252E-01
DAV:   2    -0.332224226171E+03   -0.35491E-02   -0.42577E-02 21352   0.837E-01    0.215E-01
DAV:   3    -0.332223996801E+03    0.22937E-03   -0.67650E-03 22576   0.307E-01    0.154E-01
DAV:   4    -0.332223842424E+03    0.15438E-03   -0.23843E-03 20984   0.165E-01    0.109E-01
DAV:   5    -0.332223791232E+03    0.51192E-04   -0.12125E-03 18880   0.114E-01    0.830E-02
DAV:   6    -0.332223745237E+03    0.45995E-04   -0.76997E-04 17504   0.974E-02
  12 F= -.33222375E+03 E0= -.33222354E+03  d E =-.297815E-01
       N       E                     dE             d eps       ncg     rms          rms(c)
DAV:   1    -0.332241441413E+03   -0.17650E-01   -0.21587E+00 17168   0.600E+00    0.165E+00
DAV:   2    -0.332243183383E+03   -0.17420E-02   -0.31897E-01 24232   0.231E+00    0.987E-01
DAV:   3    -0.332242002142E+03    0.11812E-02   -0.25343E-01 22472   0.158E+00    0.872E-01
DAV:   4    -0.332230134626E+03    0.11868E-01   -0.99404E-02 23344   0.101E+00    0.418E-01
DAV:   5    -0.332227754707E+03    0.23799E-02   -0.33253E-02 22832   0.598E-01    0.286E-01
DAV:   6    -0.332226537723E+03    0.12170E-02   -0.10452E-02 24272   0.331E-01    0.144E-01
DAV:   7    -0.332226611696E+03   -0.73973E-04   -0.22982E-03 22048   0.151E-01    0.110E-01
DAV:   8    -0.332226623194E+03   -0.11498E-04   -0.96334E-04 18640   0.986E-02
  13 F= -.33222662E+03 E0= -.33222645E+03  d E =-.287796E-02
       N       E                     dE             d eps       ncg     rms          rms(c)
DAV:   1    -0.332230320360E+03   -0.37087E-02   -0.31523E-01 16864   0.230E+00    0.651E-01
DAV:   2    -0.332231482497E+03   -0.11621E-02   -0.53464E-02 24328   0.924E-01    0.425E-01
DAV:   3    -0.332230915029E+03    0.56747E-03   -0.42395E-02 22320   0.644E-01    0.374E-01
DAV:   4    -0.332229203888E+03    0.17111E-02   -0.16441E-02 22704   0.428E-01    0.213E-01
DAV:   5    -0.332228390535E+03    0.81335E-03   -0.69469E-03 22392   0.269E-01    0.105E-01
DAV:   6    -0.332228251400E+03    0.13913E-03   -0.20871E-03 21016   0.143E-01    0.675E-02
DAV:   7    -0.332228231767E+03    0.19633E-04   -0.94708E-04 18544   0.942E-02
  14 F= -.33222823E+03 E0= -.33222809E+03  d E =-.448653E-02
       N       E                     dE             d eps       ncg     rms          rms(c)
DAV:   1    -0.332229853268E+03   -0.16019E-02   -0.28752E-01 16208   0.169E+00    0.141E-01
DAV:   2    -0.332231048334E+03   -0.11951E-02   -0.14094E-02 24488   0.504E-01    0.124E-01
DAV:   3    -0.332231008554E+03    0.39780E-04   -0.30384E-03 22496   0.168E-01    0.980E-02
DAV:   4    -0.332230870041E+03    0.13851E-03   -0.60997E-04 15416   0.897E-02    0.528E-02
DAV:   5    -0.332230865166E+03    0.48753E-05   -0.26756E-04 12912   0.654E-02
  15 F= -.33223087E+03 E0= -.33223071E+03  d E =-.263340E-02
       N       E                     dE             d eps       ncg     rms          rms(c)
DAV:   1    -0.332226196287E+03    0.46738E-02   -0.21821E+00 16464   0.463E+00    0.349E-01
DAV:   2    -0.332234557851E+03   -0.83616E-02   -0.10033E-01 24488   0.134E+00    0.348E-01
DAV:   3    -0.332233871551E+03    0.68630E-03   -0.20169E-02 24112   0.443E-01    0.250E-01
DAV:   4    -0.332233168816E+03    0.70273E-03   -0.41527E-03 22928   0.219E-01    0.148E-01
DAV:   5    -0.332233202488E+03   -0.33673E-04   -0.29613E-03 21112   0.168E-01    0.141E-01
DAV:   6    -0.332232905156E+03    0.29733E-03   -0.18064E-03 20504   0.143E-01    0.570E-02
DAV:   7    -0.332232869912E+03    0.35244E-04   -0.50192E-04 14936   0.838E-02
  16 F= -.33223287E+03 E0= -.33223273E+03  d E =-.463814E-02
       N       E                     dE             d eps       ncg     rms          rms(c)
DAV:   1    -0.332233770912E+03   -0.86576E-03   -0.52211E-01 16376   0.220E+00    0.161E-01
DAV:   2    -0.332235735618E+03   -0.19647E-02   -0.23930E-02 25048   0.652E-01    0.194E-01
DAV:   3    -0.332235365374E+03    0.37024E-03   -0.56266E-03 22624   0.237E-01    0.111E-01
DAV:   4    -0.332235257713E+03    0.10766E-03   -0.10771E-03 19224   0.110E-01    0.715E-02
DAV:   5    -0.332235242721E+03    0.14993E-04   -0.72909E-04 16776   0.912E-02
  17 F= -.33223524E+03 E0= -.33223512E+03  d E =-.237281E-02
       N       E                     dE             d eps       ncg     rms          rms(c)
DAV:   1    -0.332235186559E+03    0.71155E-04   -0.18848E-02 16992   0.419E-01    0.504E-02
DAV:   2    -0.332235407076E+03   -0.22052E-03   -0.18333E-03 22592   0.173E-01    0.969E-02
DAV:   3    -0.332235219635E+03    0.18744E-03   -0.95084E-04 16856   0.109E-01    0.285E-02
DAV:   4    -0.332235216463E+03    0.31722E-05   -0.75430E-05 10256   0.404E-02
  18 F= -.33223522E+03 E0= -.33223512E+03  d E =-.234655E-02
       N       E                     dE             d eps       ncg     rms          rms(c)
DAV:   1    -0.332235488379E+03   -0.26874E-03   -0.13846E-01 16160   0.117E+00    0.800E-02
DAV:   2    -0.332236019805E+03   -0.53143E-03   -0.61470E-03 24160   0.351E-01    0.838E-02
DAV:   3    -0.332235947313E+03    0.72492E-04   -0.10383E-03 17584   0.107E-01    0.516E-02
DAV:   4    -0.332235912910E+03    0.34403E-04   -0.17099E-04 10872   0.588E-02
  19 F= -.33223591E+03 E0= -.33223585E+03  d E =-.696447E-03
       N       E                     dE             d eps       ncg     rms          rms(c)
DAV:   1    -0.332233220470E+03    0.27268E-02   -0.12489E+00 16616   0.352E+00    0.245E-01
DAV:   2    -0.332238413105E+03   -0.51926E-02   -0.56221E-02 24464   0.104E+00    0.323E-01
DAV:   3    -0.332236911669E+03    0.15014E-02   -0.14027E-02 23896   0.392E-01    0.158E-01
DAV:   4    -0.332236680024E+03    0.23165E-03   -0.18752E-03 22088   0.148E-01    0.104E-01
DAV:   5    -0.332236668263E+03    0.11760E-04   -0.13323E-03 19776   0.120E-01    0.950E-02
DAV:   6    -0.332236592413E+03    0.75851E-04   -0.12094E-03 18744   0.114E-01    0.649E-02
DAV:   7    -0.332236516850E+03    0.75563E-04   -0.42084E-04 13888   0.786E-02
  20 F= -.33223652E+03 E0= -.33223653E+03  d E =-.130039E-02
