<?xml version="1.0" encoding="ISO-8859-1"?>
<modeling>
 <generator>
  <i name="program" type="string">vasp </i>
  <i name="version" type="string">5.4.4.18Apr17-6-g9f103f2a35  </i>
  <i name="subversion" type="string">(build Aug 09 2018 16:20:53) complex            parallel </i>
  <i name="platform" type="string">LinuxIFC </i>
  <i name="date" type="string">2020 04 12 </i>
  <i name="time" type="string">20:04:38 </i>
 </generator>
 <incar>
  <i type="string" name="SYSTEM"> SQS with 1 vacancy for VFE and VRV</i>
  <i type="string" name="PREC">normal</i>
  <i type="int" name="IALGO">    38</i>
  <i type="int" name="ICHARG">     2</i>
  <i type="int" name="IBRION">     2</i>
  <i type="int" name="NSW">    20</i>
  <i type="int" name="ISIF">     3</i>
  <i type="int" name="ISYM">     0</i>
  <i name="ENCUT">    600.00000000</i>
  <i type="string" name="LREAL"> Auto</i>
  <i type="int" name="ISMEAR">     1</i>
  <i name="SIGMA">      0.20000000</i>
  <v type="int" name="KPOINT_BSE">    -1     0     0     0</v>
  <i type="string" name="GGA"> PS</i>
 </incar>
 <structure name="primitive_cell" >
  <crystal>
   <varray name="basis" >
    <v>      -3.19000000      -3.19000000      -3.19000000 </v>
    <v>       1.59500000       1.59500000      -7.97500000 </v>
    <v>       7.97500000      -7.97500000      -1.59500000 </v>
   </varray>
   <i name="volume">    486.92638500 </i>
   <varray name="rec_basis" >
    <v>      -0.13584117      -0.12539185      -0.05224660 </v>
    <v>       0.04179728       0.06269592      -0.10449321 </v>
    <v>       0.06269592      -0.06269592       0.00000000 </v>
   </varray>
  </crystal>
  <varray name="positions" >
   <v>      -0.03333333      -0.06666667       0.40000000 </v>
   <v>       0.30000000      -0.40000000       0.40000000 </v>
   <v>      -0.10000000      -0.20000000       0.20000000 </v>
   <v>       0.06666667       0.13333333       0.20000000 </v>
   <v>       0.46666667      -0.06666667       0.40000000 </v>
   <v>      -0.13333333      -0.26666667      -0.40000000 </v>
   <v>       0.03333333       0.06666667      -0.40000000 </v>
   <v>       0.40000000      -0.20000000       0.20000000 </v>
   <v>      -0.20000000      -0.40000000       0.40000000 </v>
   <v>      -0.43333333       0.13333333       0.20000000 </v>
   <v>       0.36666667      -0.26666667      -0.40000000 </v>
   <v>       0.13333333       0.26666667       0.40000000 </v>
   <v>      -0.46666667       0.06666667      -0.40000000 </v>
   <v>       0.23333333       0.46666667       0.20000000 </v>
   <v>       0.20000000       0.40000000      -0.40000000 </v>
   <v>       0.00000000       0.00000000       0.00000000 </v>
   <v>      -0.06666667      -0.13333333      -0.20000000 </v>
   <v>      -0.30000000       0.40000000      -0.40000000 </v>
   <v>      -0.26666667       0.46666667       0.20000000 </v>
   <v>       0.33333333      -0.33333333       0.00000000 </v>
   <v>       0.43333333      -0.13333333      -0.20000000 </v>
   <v>      -0.50000000       0.00000000       0.00000000 </v>
   <v>       0.26666667      -0.46666667      -0.20000000 </v>
   <v>      -0.33333333       0.33333333       0.00000000 </v>
   <v>      -0.40000000       0.20000000      -0.20000000 </v>
   <v>      -0.16666667      -0.33333333       0.00000000 </v>
   <v>      -0.23333333      -0.46666667      -0.20000000 </v>
   <v>       0.16666667       0.33333333       0.00000000 </v>
   <v>       0.10000000       0.20000000      -0.20000000 </v>
  </varray>
 </structure>
 <varray name="primitive_index" >
  <v type="int" >        1 </v>
  <v type="int" >       17 </v>
  <v type="int" >        6 </v>
  <v type="int" >       23 </v>
  <v type="int" >       19 </v>
  <v type="int" >       18 </v>
  <v type="int" >        5 </v>
  <v type="int" >       15 </v>
  <v type="int" >        7 </v>
  <v type="int" >       14 </v>
  <v type="int" >       10 </v>
  <v type="int" >       11 </v>
  <v type="int" >       27 </v>
  <v type="int" >       29 </v>
  <v type="int" >       22 </v>
  <v type="int" >        3 </v>
  <v type="int" >       13 </v>
  <v type="int" >       25 </v>
  <v type="int" >        8 </v>
  <v type="int" >       28 </v>
  <v type="int" >       16 </v>
  <v type="int" >        2 </v>
  <v type="int" >       21 </v>
  <v type="int" >        9 </v>
  <v type="int" >       26 </v>
  <v type="int" >       12 </v>
  <v type="int" >       24 </v>
  <v type="int" >       20 </v>
  <v type="int" >        4 </v>
 </varray>
 <kpoints>
  <generation param="Gamma">
   <v type="int" name="divisions">       5        5        5 </v>
   <v name="usershift">      0.00000000       0.00000000       0.00000000 </v>
   <v name="genvec1">      0.20000000      -0.00000000      -0.00000000 </v>
   <v name="genvec2">      0.00000000       0.20000000       0.00000000 </v>
   <v name="genvec3">      0.00000000       0.00000000       0.20000000 </v>
   <v name="shift">      0.00000000       0.00000000       0.00000000 </v>
  </generation>
  <varray name="kpointlist" >
   <v>       0.00000000       0.00000000       0.00000000 </v>
   <v>       0.20000000      -0.00000000       0.00000000 </v>
   <v>       0.40000000      -0.00000000       0.00000000 </v>
   <v>       0.00000000       0.20000000       0.00000000 </v>
   <v>       0.20000000       0.20000000      -0.00000000 </v>
   <v>       0.40000000       0.20000000      -0.00000000 </v>
   <v>      -0.40000000       0.20000000      -0.00000000 </v>
   <v>      -0.20000000       0.20000000       0.00000000 </v>
   <v>       0.00000000       0.40000000       0.00000000 </v>
   <v>       0.20000000       0.40000000       0.00000000 </v>
   <v>       0.40000000       0.40000000      -0.00000000 </v>
   <v>      -0.40000000       0.40000000       0.00000000 </v>
   <v>      -0.20000000       0.40000000       0.00000000 </v>
   <v>       0.00000000       0.00000000       0.20000000 </v>
   <v>       0.20000000      -0.00000000       0.20000000 </v>
   <v>       0.40000000       0.00000000       0.20000000 </v>
   <v>      -0.40000000       0.00000000       0.20000000 </v>
   <v>      -0.20000000       0.00000000       0.20000000 </v>
   <v>       0.00000000       0.20000000       0.20000000 </v>
   <v>       0.20000000       0.20000000       0.20000000 </v>
   <v>       0.40000000       0.20000000       0.20000000 </v>
   <v>      -0.40000000       0.20000000       0.20000000 </v>
   <v>      -0.20000000       0.20000000       0.20000000 </v>
   <v>       0.00000000       0.40000000       0.20000000 </v>
   <v>       0.20000000       0.40000000       0.20000000 </v>
   <v>       0.40000000       0.40000000       0.20000000 </v>
   <v>      -0.40000000       0.40000000       0.20000000 </v>
   <v>      -0.20000000       0.40000000       0.20000000 </v>
   <v>       0.00000000      -0.40000000       0.20000000 </v>
   <v>       0.20000000      -0.40000000       0.20000000 </v>
   <v>       0.40000000      -0.40000000       0.20000000 </v>
   <v>      -0.40000000      -0.40000000       0.20000000 </v>
   <v>      -0.20000000      -0.40000000       0.20000000 </v>
   <v>       0.00000000      -0.20000000       0.20000000 </v>
   <v>       0.20000000      -0.20000000       0.20000000 </v>
   <v>       0.40000000      -0.20000000       0.20000000 </v>
   <v>      -0.40000000      -0.20000000       0.20000000 </v>
   <v>      -0.20000000      -0.20000000       0.20000000 </v>
   <v>       0.00000000       0.00000000       0.40000000 </v>
   <v>       0.20000000      -0.00000000       0.40000000 </v>
   <v>       0.40000000      -0.00000000       0.40000000 </v>
   <v>      -0.40000000       0.00000000       0.40000000 </v>
   <v>      -0.20000000       0.00000000       0.40000000 </v>
   <v>      -0.00000000       0.20000000       0.40000000 </v>
   <v>       0.20000000       0.20000000       0.40000000 </v>
   <v>       0.40000000       0.20000000       0.40000000 </v>
   <v>      -0.40000000       0.20000000       0.40000000 </v>
   <v>      -0.20000000       0.20000000       0.40000000 </v>
   <v>       0.00000000       0.40000000       0.40000000 </v>
   <v>       0.20000000       0.40000000       0.40000000 </v>
   <v>       0.40000000       0.40000000       0.40000000 </v>
   <v>      -0.40000000       0.40000000       0.40000000 </v>
   <v>      -0.20000000       0.40000000       0.40000000 </v>
   <v>       0.00000000      -0.40000000       0.40000000 </v>
   <v>       0.20000000      -0.40000000       0.40000000 </v>
   <v>       0.40000000      -0.40000000       0.40000000 </v>
   <v>      -0.40000000      -0.40000000       0.40000000 </v>
   <v>      -0.20000000      -0.40000000       0.40000000 </v>
   <v>       0.00000000      -0.20000000       0.40000000 </v>
   <v>       0.20000000      -0.20000000       0.40000000 </v>
   <v>       0.40000000      -0.20000000       0.40000000 </v>
   <v>      -0.40000000      -0.20000000       0.40000000 </v>
   <v>      -0.20000000      -0.20000000       0.40000000 </v>
  </varray>
  <varray name="weights" >
   <v>       0.00800000 </v>
   <v>       0.01600000 </v>
   <v>       0.01600000 </v>
   <v>       0.01600000 </v>
   <v>       0.01600000 </v>
   <v>       0.01600000 </v>
   <v>       0.01600000 </v>
   <v>       0.01600000 </v>
   <v>       0.01600000 </v>
   <v>       0.01600000 </v>
   <v>       0.01600000 </v>
   <v>       0.01600000 </v>
   <v>       0.01600000 </v>
   <v>       0.01600000 </v>
   <v>       0.01600000 </v>
   <v>       0.01600000 </v>
   <v>       0.01600000 </v>
   <v>       0.01600000 </v>
   <v>       0.01600000 </v>
   <v>       0.01600000 </v>
   <v>       0.01600000 </v>
   <v>       0.01600000 </v>
   <v>       0.01600000 </v>
   <v>       0.01600000 </v>
   <v>       0.01600000 </v>
   <v>       0.01600000 </v>
   <v>       0.01600000 </v>
   <v>       0.01600000 </v>
   <v>       0.01600000 </v>
   <v>       0.01600000 </v>
   <v>       0.01600000 </v>
   <v>       0.01600000 </v>
   <v>       0.01600000 </v>
   <v>       0.01600000 </v>
   <v>       0.01600000 </v>
   <v>       0.01600000 </v>
   <v>       0.01600000 </v>
   <v>       0.01600000 </v>
   <v>       0.01600000 </v>
   <v>       0.01600000 </v>
   <v>       0.01600000 </v>
   <v>       0.01600000 </v>
   <v>       0.01600000 </v>
   <v>       0.01600000 </v>
   <v>       0.01600000 </v>
   <v>       0.01600000 </v>
   <v>       0.01600000 </v>
   <v>       0.01600000 </v>
   <v>       0.01600000 </v>
   <v>       0.01600000 </v>
   <v>       0.01600000 </v>
   <v>       0.01600000 </v>
   <v>       0.01600000 </v>
   <v>       0.01600000 </v>
   <v>       0.01600000 </v>
   <v>       0.01600000 </v>
   <v>       0.01600000 </v>
   <v>       0.01600000 </v>
   <v>       0.01600000 </v>
   <v>       0.01600000 </v>
   <v>       0.01600000 </v>
   <v>       0.01600000 </v>
   <v>       0.01600000 </v>
  </varray>
 </kpoints>
 <parameters>
  <separator name="general" >
   <i type="string" name="SYSTEM">SQS with 1 vacancy for VFE and VRV</i>
   <i type="logical" name="LCOMPAT"> F  </i>
  </separator>
  <separator name="electronic" >
   <i type="string" name="PREC">normal</i>
   <i name="ENMAX">    600.00000000</i>
   <i name="ENAUG">    455.65900000</i>
   <i name="EDIFF">      0.00010000</i>
   <i type="int" name="IALGO">    38</i>
   <i type="int" name="IWAVPR">    11</i>
   <i type="int" name="NBANDS">   120</i>
   <i name="NELECT">    191.00000000</i>
   <i type="int" name="TURBO">     0</i>
   <i type="int" name="IRESTART">     0</i>
   <i type="int" name="NREBOOT">     0</i>
   <i type="int" name="NMIN">     0</i>
   <i name="EREF">      0.00000000</i>
   <separator name="electronic smearing" >
    <i type="int" name="ISMEAR">     1</i>
    <i name="SIGMA">      0.20000000</i>
    <i name="KSPACING">      0.50000000</i>
    <i type="logical" name="KGAMMA"> T  </i>
   </separator>
   <separator name="electronic projectors" >
    <i type="logical" name="LREAL"> T  </i>
    <v name="ROPT">     -0.00050000     -0.00050000     -0.00050000     -0.00050000     -0.00050000</v>
    <i type="int" name="LMAXPAW">  -100</i>
    <i type="int" name="LMAXMIX">     2</i>
    <i type="logical" name="NLSPLINE"> F  </i>
   </separator>
   <separator name="electronic startup" >
    <i type="int" name="ISTART">     0</i>
    <i type="int" name="ICHARG">     2</i>
    <i type="int" name="INIWAV">     1</i>
   </separator>
   <separator name="electronic spin" >
    <i type="int" name="ISPIN">     1</i>
    <i type="logical" name="LNONCOLLINEAR"> F  </i>
    <v name="MAGMOM">      1.00000000      1.00000000      1.00000000      1.00000000      1.00000000      1.00000000      1.00000000      1.00000000      1.00000000      1.00000000      1.00000000      1.00000000      1.00000000      1.00000000      1.00000000      1.00000000      1.00000000      1.00000000      1.00000000      1.00000000
      1.00000000      1.00000000      1.00000000      1.00000000      1.00000000      1.00000000      1.00000000      1.00000000      1.00000000</v>
    <i name="NUPDOWN">     -1.00000000</i>
    <i type="logical" name="LSORBIT"> F  </i>
    <v name="SAXIS">      0.00000000      0.00000000      1.00000000</v>
    <i type="logical" name="LSPIRAL"> F  </i>
    <v name="QSPIRAL">      0.00000000      0.00000000      0.00000000</v>
    <i type="logical" name="LZEROZ"> F  </i>
   </separator>
   <separator name="electronic exchange-correlation" >
    <i type="logical" name="LASPH"> F  </i>
    <i type="logical" name="LMETAGGA"> F  </i>
   </separator>
   <separator name="electronic convergence" >
    <i type="int" name="NELM">    60</i>
    <i type="int" name="NELMDL">    -5</i>
    <i type="int" name="NELMIN">     2</i>
    <i name="ENINI">    600.00000000</i>
    <separator name="electronic convergence detail" >
     <i type="logical" name="LDIAG"> T  </i>
     <i type="logical" name="LSUBROT"> F  </i>
     <i name="WEIMIN">      0.00100000</i>
     <i name="EBREAK">      0.00000021</i>
     <i name="DEPER">      0.30000000</i>
     <i type="int" name="NRMM">     4</i>
     <i name="TIME">      0.40000000</i>
    </separator>
   </separator>
   <separator name="electronic mixer" >
    <i name="AMIX">      0.40000000</i>
    <i name="BMIX">      1.00000000</i>
    <i name="AMIN">      0.10000000</i>
    <i name="AMIX_MAG">      1.60000000</i>
    <i name="BMIX_MAG">      1.00000000</i>
    <separator name="electronic mixer details" >
     <i type="int" name="IMIX">     4</i>
     <i type="logical" name="MIXFIRST"> F  </i>
     <i type="int" name="MAXMIX">   -45</i>
     <i name="WC">    100.00000000</i>
     <i type="int" name="INIMIX">     1</i>
     <i type="int" name="MIXPRE">     1</i>
     <i type="int" name="MREMOVE">     5</i>
    </separator>
   </separator>
   <separator name="electronic dipolcorrection" >
    <i type="logical" name="LDIPOL"> F  </i>
    <i type="logical" name="LMONO"> F  </i>
    <i type="int" name="IDIPOL">     0</i>
    <i name="EPSILON">      1.00000000</i>
    <v name="DIPOL">   -100.00000000   -100.00000000   -100.00000000</v>
    <i name="EFIELD">      0.00000000</i>
   </separator>
  </separator>
  <separator name="grids" >
   <i type="int" name="NGX">    36</i>
   <i type="int" name="NGY">    50</i>
   <i type="int" name="NGZ">    70</i>
   <i type="int" name="NGXF">    72</i>
   <i type="int" name="NGYF">   100</i>
   <i type="int" name="NGZF">   140</i>
   <i type="logical" name="ADDGRID"> F  </i>
  </separator>
  <separator name="ionic" >
   <i type="int" name="NSW">    20</i>
   <i type="int" name="IBRION">     2</i>
   <i type="int" name="MDALGO">     0</i>
   <i type="int" name="ISIF">     3</i>
   <i name="PSTRESS">      0.00000000</i>
   <i name="EDIFFG">      0.00100000</i>
   <i type="int" name="NFREE">     1</i>
   <i name="POTIM">      0.50000000</i>
   <i name="SMASS">     -3.00000000</i>
   <i name="SCALEE">      1.00000000</i>
  </separator>
  <separator name="ionic md" >
   <i name="TEBEG">      0.00010000</i>
   <i name="TEEND">      0.00010000</i>
   <i type="int" name="NBLOCK">     1</i>
   <i type="int" name="KBLOCK">    20</i>
   <i type="int" name="NPACO">   256</i>
   <i name="APACO">     16.00000000</i>
  </separator>
  <separator name="symmetry" >
   <i type="int" name="ISYM">     0</i>
   <i name="SYMPREC">      0.00001000</i>
  </separator>
  <separator name="dos" >
   <i type="int" name="LORBIT">     0</i>
   <v name="RWIGS">     -1.00000000     -1.00000000     -1.00000000     -1.00000000     -1.00000000</v>
   <i type="int" name="NEDOS">   301</i>
   <i name="EMIN">     10.00000000</i>
   <i name="EMAX">    -10.00000000</i>
   <i name="EFERMI">      0.00000000</i>
  </separator>
  <separator name="writing" >
   <i type="int" name="NWRITE">     2</i>
   <i type="logical" name="LWAVE"> T  </i>
   <i type="logical" name="LDOWNSAMPLE"> F  </i>
   <i type="logical" name="LCHARG"> T  </i>
   <i type="logical" name="LPARD"> F  </i>
   <i type="logical" name="LVTOT"> F  </i>
   <i type="logical" name="LVHAR"> F  </i>
   <i type="logical" name="LELF"> F  </i>
   <i type="logical" name="LOPTICS"> F  </i>
   <v name="STM">      0.00000000      0.00000000      0.00000000      0.00000000      0.00000000      0.00000000      0.00000000</v>
  </separator>
  <separator name="performance" >
   <i type="int" name="NPAR">     8</i>
   <i type="int" name="NSIM">     4</i>
   <i type="int" name="NBLK">    -1</i>
   <i type="logical" name="LPLANE"> T  </i>
   <i type="logical" name="LSCALAPACK"> T  </i>
   <i type="logical" name="LSCAAWARE"> F  </i>
   <i type="logical" name="LSCALU"> F  </i>
   <i type="logical" name="LASYNC"> F  </i>
   <i type="logical" name="LORBITALREAL"> F  </i>
  </separator>
  <separator name="miscellaneous" >
   <i type="int" name="IDIOT">     3</i>
   <i type="int" name="ISPECIAL">     0</i>
   <i type="logical" name="LMUSIC"> F  </i>
   <v name="POMASS">     92.91000000     95.94000000    180.94800000     47.88000000    183.85000000</v>
   <v name="DARWINR">      0.00000000      0.00000000      0.00000000      0.00000000      0.00000000</v>
   <v name="DARWINV">      1.00000000      1.00000000      1.00000000      1.00000000      1.00000000</v>
   <i type="logical" name="LCORR"> T  </i>
  </separator>
  <i type="logical" name="GGA_COMPAT"> T  </i>
  <i type="logical" name="LBERRY"> F  </i>
  <i type="int" name="ICORELEVEL">     0</i>
  <i type="logical" name="LDAU"> F  </i>
  <i type="int" name="I_CONSTRAINED_M">     0</i>
  <separator name="electronic exchange-correlation" >
   <i type="string" name="GGA">PS</i>
   <i type="int" name="VOSKOWN">     0</i>
   <i type="logical" name="LHFCALC"> F  </i>
   <i type="string" name="PRECFOCK"></i>
   <i type="logical" name="LSYMGRAD"> F  </i>
   <i type="logical" name="LHFONE"> F  </i>
   <i type="logical" name="LRHFCALC"> F  </i>
   <i type="logical" name="LTHOMAS"> F  </i>
   <i type="logical" name="LMODELHF"> F  </i>
   <i name="ENCUT4O">     -1.00000000</i>
   <i type="int" name="EXXOEP">     0</i>
   <i type="int" name="FOURORBIT">     0</i>
   <i name="AEXX">      0.00000000</i>
   <i name="HFALPHA">      0.00000000</i>
   <i name="MCALPHA">      0.00000000</i>
   <i name="ALDAX">      1.00000000</i>
   <i name="AGGAX">      1.00000000</i>
   <i name="ALDAC">      1.00000000</i>
   <i name="AGGAC">      1.00000000</i>
   <i type="int" name="NKREDX">     1</i>
   <i type="int" name="NKREDY">     1</i>
   <i type="int" name="NKREDZ">     1</i>
   <i type="logical" name="SHIFTRED"> F  </i>
   <i type="logical" name="ODDONLY"> F  </i>
   <i type="logical" name="EVENONLY"> F  </i>
   <i type="int" name="LMAXFOCK">     0</i>
   <i type="int" name="NMAXFOCKAE">     0</i>
   <i type="logical" name="LFOCKAEDFT"> F  </i>
   <i name="HFSCREEN">      0.00000000</i>
   <i name="HFSCREENC">      0.00000000</i>
   <i type="int" name="NBANDSGWLOW">     0</i>
  </separator>
  <separator name="vdW DFT" >
   <i type="logical" name="LUSE_VDW"> F  </i>
   <i name="Zab_VDW">     -0.84910000</i>
   <i name="PARAM1">      0.12340000</i>
   <i name="PARAM2">      1.00000000</i>
   <i name="PARAM3">      0.00000000</i>
  </separator>
  <separator name="model GW" >
   <i type="int" name="MODEL_GW">     0</i>
   <i name="MODEL_EPS0">     10.07433900</i>
   <i name="MODEL_ALPHA">      1.00000000</i>
  </separator>
  <separator name="linear response parameters" >
   <i type="logical" name="LEPSILON"> F  </i>
   <i type="logical" name="LRPA"> F  </i>
   <i type="logical" name="LNABLA"> F  </i>
   <i type="logical" name="LVEL"> F  </i>
   <i type="int" name="KINTER">     0</i>
   <i name="CSHIFT">      0.10000000</i>
   <i name="OMEGAMAX">     -1.00000000</i>
   <i name="DEG_THRESHOLD">      0.00200000</i>
   <i name="RTIME">     -0.10000000</i>
   <i name="WPLASMAI">      0.00000000</i>
   <v name="DFIELD">      0.00000000      0.00000000      0.00000000</v>
   <v name="WPLASMA">      0.00000000      0.00000000      0.00000000      0.00000000      0.00000000      0.00000000      0.00000000      0.00000000      0.00000000</v>
  </separator>
  <separator name="orbital magnetization" >
   <i type="logical" name="NUCIND"> F  </i>
   <v name="MAGPOS">      0.00000000      0.00000000      0.00000000</v>
   <i type="logical" name="LNICSALL"> T  </i>
   <i type="logical" name="ORBITALMAG"> F  </i>
   <i type="logical" name="LMAGBLOCH"> F  </i>
   <i type="logical" name="LCHIMAG"> F  </i>
   <i type="logical" name="LGAUGE"> T  </i>
   <i type="int" name="MAGATOM">     0</i>
   <v name="MAGDIPOL">      0.00000000      0.00000000      0.00000000</v>
   <v name="AVECCONST">      0.00000000      0.00000000      0.00000000</v>
  </separator>
  <separator name="response functions" >
   <i type="logical" name="LADDER"> F  </i>
   <i type="logical" name="LRPAFORCE"> F  </i>
   <i type="logical" name="LFXC"> F  </i>
   <i type="logical" name="LHARTREE"> T  </i>
   <i type="int" name="IBSE">     0</i>
   <v type="int" name="KPOINT">    -1     0     0     0</v>
   <i type="logical" name="LTCTE"> F  </i>
   <i type="logical" name="LTETE"> F  </i>
   <i type="logical" name="LTRIPLET"> F  </i>
   <i type="logical" name="LFXCEPS"> F  </i>
   <i type="logical" name="LFXHEG"> F  </i>
   <i type="int" name="NATURALO">     2</i>
   <i type="logical" name="L2ORDER"> F  </i>
   <i type="logical" name="LMP2LT"> F  </i>
   <i type="logical" name="LUSEW"> F  </i>
   <i name="ENCUTGW">     -2.00000000</i>
   <i name="ENCUTGWSOFT">     -2.00000000</i>
   <i name="ENCUTLF">     -1.00000000</i>
   <i type="int" name="LMAXMP2">    -1</i>
   <i name="SCISSOR">      0.00000000</i>
   <i type="int" name="NOMEGA">     0</i>
   <i type="int" name="NOMEGAR">     0</i>
   <i type="int" name="NBANDSGW">    -1</i>
   <i type="int" name="NBANDSO">    -1</i>
   <i type="int" name="NBANDSV">    -1</i>
   <i type="int" name="NELM">     1</i>
   <i type="int" name="NELMHF">     1</i>
   <i type="int" name="DIM">     3</i>
   <i type="int" name="ANTIRES">     0</i>
   <i name="OMEGAMAX">    -30.00000000</i>
   <i name="OMEGAMIN">    -30.00000000</i>
   <i name="OMEGATL">   -200.00000000</i>
   <i type="int" name="OMEGAGRID">   140</i>
   <i name="CSHIFT">     -0.10000000</i>
   <i type="logical" name="SELFENERGY"> F  </i>
   <i type="logical" name="LSPECTRAL"> F  </i>
   <i type="logical" name="LSPECTRALGW"> F  </i>
   <i type="logical" name="LSINGLES"> F  </i>
   <i type="logical" name="LFERMIGW"> F  </i>
   <i type="logical" name="ODDONLYGW"> F  </i>
   <i type="logical" name="EVENONLYGW"> F  </i>
   <i type="int" name="NKREDLFX">     1</i>
   <i type="int" name="NKREDLFY">     1</i>
   <i type="int" name="NKREDLFZ">     1</i>
   <i type="int" name="MAXMEM">  2800</i>
   <i type="int" name="TELESCOPE">     0</i>
   <i type="int" name="TAUPAR">     1</i>
   <i type="int" name="OMEGAPAR">    -1</i>
   <i name="LAMBDA">      1.00000000</i>
  </separator>
  <separator name="External order field" >
   <i name="OFIELD_KAPPA">      0.00000000</i>
   <v name="OFIELD_K">      0.00000000      0.00000000      0.00000000</v>
   <i name="OFIELD_Q6_NEAR">      0.00000000</i>
   <i name="OFIELD_Q6_FAR">      0.00000000</i>
   <i name="OFIELD_A">      0.00000000</i>
  </separator>
  <separator name="solvation model" >
   <i type="logical" name="LSOL"> F  </i>
  </separator>
 </parameters>
 <atominfo>
  <atoms>      29 </atoms>
  <types>       5 </types>
  <array name="atoms" >
   <dimension dim="1">ion</dimension>
   <field type="string">element</field>
   <field type="int">atomtype</field>
   <set>
    <rc><c>Nb</c><c>   1</c></rc>
    <rc><c>Nb</c><c>   1</c></rc>
    <rc><c>Nb</c><c>   1</c></rc>
    <rc><c>Nb</c><c>   1</c></rc>
    <rc><c>Nb</c><c>   1</c></rc>
    <rc><c>Mo</c><c>   2</c></rc>
    <rc><c>Mo</c><c>   2</c></rc>
    <rc><c>Mo</c><c>   2</c></rc>
    <rc><c>Mo</c><c>   2</c></rc>
    <rc><c>Mo</c><c>   2</c></rc>
    <rc><c>Mo</c><c>   2</c></rc>
    <rc><c>Ta</c><c>   3</c></rc>
    <rc><c>Ta</c><c>   3</c></rc>
    <rc><c>Ta</c><c>   3</c></rc>
    <rc><c>Ta</c><c>   3</c></rc>
    <rc><c>Ta</c><c>   3</c></rc>
    <rc><c>Ta</c><c>   3</c></rc>
    <rc><c>Ti</c><c>   4</c></rc>
    <rc><c>Ti</c><c>   4</c></rc>
    <rc><c>Ti</c><c>   4</c></rc>
    <rc><c>Ti</c><c>   4</c></rc>
    <rc><c>Ti</c><c>   4</c></rc>
    <rc><c>Ti</c><c>   4</c></rc>
    <rc><c>W </c><c>   5</c></rc>
    <rc><c>W </c><c>   5</c></rc>
    <rc><c>W </c><c>   5</c></rc>
    <rc><c>W </c><c>   5</c></rc>
    <rc><c>W </c><c>   5</c></rc>
    <rc><c>W </c><c>   5</c></rc>
   </set>
  </array>
  <array name="atomtypes" >
   <dimension dim="1">type</dimension>
   <field type="int">atomspertype</field>
   <field type="string">element</field>
   <field>mass</field>
   <field>valence</field>
   <field type="string">pseudopotential</field>
   <set>
    <rc><c>   5</c><c>Nb</c><c>     92.91000000</c><c>     13.00000000</c><c>  PAW_PBE Nb_sv 25May2007               </c></rc>
    <rc><c>   6</c><c>Mo</c><c>     95.94000000</c><c>      6.00000000</c><c>  PAW_PBE Mo 08Apr2002                  </c></rc>
    <rc><c>   6</c><c>Ta</c><c>    180.94800000</c><c>      5.00000000</c><c>  PAW_PBE Ta 17Jan2003                  </c></rc>
    <rc><c>   6</c><c>Ti</c><c>     47.88000000</c><c>      4.00000000</c><c>  PAW_PBE Ti 08Apr2002                  </c></rc>
    <rc><c>   6</c><c>W </c><c>    183.85000000</c><c>      6.00000000</c><c>  PAW_PBE W 08Apr2002                   </c></rc>
   </set>
  </array>
 </atominfo>
 <structure name="initialpos" >
  <crystal>
   <varray name="basis" >
    <v>      -3.19000000      -3.19000000      -3.19000000 </v>
    <v>       1.59500000       1.59500000      -7.97500000 </v>
    <v>       7.97500000      -7.97500000      -1.59500000 </v>
   </varray>
   <i name="volume">    486.92638500 </i>
   <varray name="rec_basis" >
    <v>      -0.13584117      -0.12539185      -0.05224660 </v>
    <v>       0.04179728       0.06269592      -0.10449321 </v>
    <v>       0.06269592      -0.06269592       0.00000000 </v>
   </varray>
  </crystal>
  <varray name="positions" >
   <v>       0.96666667       0.93333333       0.40000000 </v>
   <v>       0.50000000       0.00000000       0.00000000 </v>
   <v>       0.00000000       0.00000000       0.00000000 </v>
   <v>       0.10000000       0.20000000       0.80000000 </v>
   <v>       0.03333333       0.06666667       0.60000000 </v>
   <v>       0.90000000       0.80000000       0.20000000 </v>
   <v>       0.80000000       0.60000000       0.40000000 </v>
   <v>       0.73333333       0.46666667       0.20000000 </v>
   <v>       0.66666667       0.33333333       0.00000000 </v>
   <v>       0.36666667       0.73333333       0.60000000 </v>
   <v>       0.13333333       0.26666667       0.40000000 </v>
   <v>       0.83333333       0.66666667       0.00000000 </v>
   <v>       0.93333333       0.86666667       0.80000000 </v>
   <v>       0.56666667       0.13333333       0.20000000 </v>
   <v>       0.40000000       0.80000000       0.20000000 </v>
   <v>       0.43333333       0.86666667       0.80000000 </v>
   <v>       0.30000000       0.60000000       0.40000000 </v>
   <v>       0.86666667       0.73333333       0.60000000 </v>
   <v>       0.46666667       0.93333333       0.40000000 </v>
   <v>       0.16666667       0.33333333       0.00000000 </v>
   <v>       0.26666667       0.53333333       0.80000000 </v>
   <v>       0.20000000       0.40000000       0.60000000 </v>
   <v>       0.06666667       0.13333333       0.20000000 </v>
   <v>       0.76666667       0.53333333       0.80000000 </v>
   <v>       0.70000000       0.40000000       0.60000000 </v>
   <v>       0.60000000       0.20000000       0.80000000 </v>
   <v>       0.53333333       0.06666667       0.60000000 </v>
   <v>       0.33333333       0.66666667       0.00000000 </v>
   <v>       0.23333333       0.46666667       0.20000000 </v>
  </varray>
 </structure>
 <calculation>
  <scstep>
   <time name="dav">   18.40   18.43</time>
   <time name="total">   18.46   18.60</time>
   <energy>
    <i name="alphaZ">   1248.41475165 </i>
    <i name="ewald"> -10534.34583804 </i>
    <i name="hartreedc">  -2869.41877574 </i>
    <i name="XCdc">   -962.09101780 </i>
    <i name="pawpsdc">  11070.58973812 </i>
    <i name="pawaedc">  -9526.02277447 </i>
    <i name="eentropy">      0.00674843 </i>
    <i name="bandstr">   1855.07631122 </i>
    <i name="atom">  11656.65998444 </i>
    <i name="e_fr_energy">   1938.86912780 </i>
    <i name="e_wo_entrp">   1938.86237938 </i>
    <i name="e_0_energy">   1938.86687833 </i>
   </energy>
  </scstep>
  <scstep>
   <time name="dav">   18.43   18.47</time>
   <time name="total">   18.44   18.47</time>
   <energy>
    <i name="e_fr_energy">     27.75601585 </i>
    <i name="e_wo_entrp">     27.75817540 </i>
    <i name="e_0_energy">     27.75673570 </i>
   </energy>
  </scstep>
  <scstep>
   <time name="dav">   29.12   29.16</time>
   <time name="total">   29.12   29.17</time>
   <energy>
    <i name="e_fr_energy">   -309.84354078 </i>
    <i name="e_wo_entrp">   -309.84099330 </i>
    <i name="e_0_energy">   -309.84269162 </i>
   </energy>
  </scstep>
  <scstep>
   <time name="dav">   26.36   26.41</time>
   <time name="total">   26.36   26.42</time>
   <energy>
    <i name="e_fr_energy">   -349.70699386 </i>
    <i name="e_wo_entrp">   -349.71059345 </i>
    <i name="e_0_energy">   -349.70819372 </i>
   </energy>
  </scstep>
  <scstep>
   <time name="dav">   30.79   30.83</time>
   <time name="total">   31.39   31.42</time>
   <energy>
    <i name="e_fr_energy">   -353.79332175 </i>
    <i name="e_wo_entrp">   -353.79901406 </i>
    <i name="e_0_energy">   -353.79521919 </i>
   </energy>
  </scstep>
  <scstep>
   <time name="dav">   24.50   24.53</time>
   <time name="total">   25.12   25.15</time>
   <energy>
    <i name="e_fr_energy">   -345.99470816 </i>
    <i name="e_wo_entrp">   -346.00054620 </i>
    <i name="e_0_energy">   -345.99665418 </i>
   </energy>
  </scstep>
  <scstep>
   <time name="dav">   24.90   24.94</time>
   <time name="total">   25.54   25.59</time>
   <energy>
    <i name="e_fr_energy">   -353.86372886 </i>
    <i name="e_wo_entrp">   -353.87066690 </i>
    <i name="e_0_energy">   -353.86604154 </i>
   </energy>
  </scstep>
  <scstep>
   <time name="dav">   25.55   25.59</time>
   <time name="total">   26.18   26.22</time>
   <energy>
    <i name="e_fr_energy">   -340.80659559 </i>
    <i name="e_wo_entrp">   -340.80221475 </i>
    <i name="e_0_energy">   -340.80513531 </i>
   </energy>
  </scstep>
  <scstep>
   <time name="dav">   25.85   25.88</time>
   <time name="total">   26.48   26.51</time>
   <energy>
    <i name="e_fr_energy">   -333.86806641 </i>
    <i name="e_wo_entrp">   -333.86744481 </i>
    <i name="e_0_energy">   -333.86785921 </i>
   </energy>
  </scstep>
  <scstep>
   <time name="dav">   25.24   25.28</time>
   <time name="total">   25.88   25.92</time>
   <energy>
    <i name="e_fr_energy">   -331.97640919 </i>
    <i name="e_wo_entrp">   -331.97233638 </i>
    <i name="e_0_energy">   -331.97505159 </i>
   </energy>
  </scstep>
  <scstep>
   <time name="dav">   25.99   26.03</time>
   <time name="total">   26.62   26.68</time>
   <energy>
    <i name="e_fr_energy">   -331.35533098 </i>
    <i name="e_wo_entrp">   -331.34622746 </i>
    <i name="e_0_energy">   -331.35229647 </i>
   </energy>
  </scstep>
  <scstep>
   <time name="dav">   25.89   25.93</time>
   <time name="total">   26.52   26.56</time>
   <energy>
    <i name="e_fr_energy">   -331.25522377 </i>
    <i name="e_wo_entrp">   -331.24652694 </i>
    <i name="e_0_energy">   -331.25232483 </i>
   </energy>
  </scstep>
  <scstep>
   <time name="dav">   26.02   26.05</time>
   <time name="total">   26.64   26.69</time>
   <energy>
    <i name="e_fr_energy">   -331.23298403 </i>
    <i name="e_wo_entrp">   -331.22049094 </i>
    <i name="e_0_energy">   -331.22881967 </i>
   </energy>
  </scstep>
  <scstep>
   <time name="dav">   25.36   25.40</time>
   <time name="total">   25.98   26.02</time>
   <energy>
    <i name="e_fr_energy">   -331.19257171 </i>
    <i name="e_wo_entrp">   -331.18237796 </i>
    <i name="e_0_energy">   -331.18917380 </i>
   </energy>
  </scstep>
  <scstep>
   <time name="dav">   25.42   25.46</time>
   <time name="total">   26.05   26.09</time>
   <energy>
    <i name="e_fr_energy">   -331.17042373 </i>
    <i name="e_wo_entrp">   -331.15910214 </i>
    <i name="e_0_energy">   -331.16664987 </i>
   </energy>
  </scstep>
  <scstep>
   <time name="dav">   26.14   26.17</time>
   <time name="total">   26.77   26.80</time>
   <energy>
    <i name="e_fr_energy">   -331.16925068 </i>
    <i name="e_wo_entrp">   -331.15767269 </i>
    <i name="e_0_energy">   -331.16539135 </i>
   </energy>
  </scstep>
  <scstep>
   <time name="dav">   25.08   25.11</time>
   <time name="total">   25.71   25.74</time>
   <energy>
    <i name="e_fr_energy">   -331.16703094 </i>
    <i name="e_wo_entrp">   -331.15561623 </i>
    <i name="e_0_energy">   -331.16322603 </i>
   </energy>
  </scstep>
  <scstep>
   <time name="dav">   24.97   25.00</time>
   <time name="total">   25.60   25.62</time>
   <energy>
    <i name="e_fr_energy">   -331.16679558 </i>
    <i name="e_wo_entrp">   -331.15518341 </i>
    <i name="e_0_energy">   -331.16292486 </i>
   </energy>
  </scstep>
  <scstep>
   <time name="dav">   25.04   25.07</time>
   <time name="total">   25.69   25.72</time>
   <energy>
    <i name="e_fr_energy">   -331.16651603 </i>
    <i name="e_wo_entrp">   -331.15516600 </i>
    <i name="e_0_energy">   -331.16273269 </i>
   </energy>
  </scstep>
  <scstep>
   <time name="dav">   22.31   22.34</time>
   <time name="total">   22.34   22.37</time>
   <energy>
    <i name="alphaZ">   1248.41475165 </i>
    <i name="ewald"> -10534.34583804 </i>
    <i name="hartreedc">  -2734.64377550 </i>
    <i name="XCdc">   -955.27280817 </i>
    <i name="pawpsdc">  19722.06959485 </i>
    <i name="pawaedc"> -18183.11052828 </i>
    <i name="eentropy">     -0.01147608 </i>
    <i name="bandstr">   -550.92633815 </i>
    <i name="atom">  11656.65998444 </i>
    <i name="e_fr_energy">   -331.16643328 </i>
    <i name="e_wo_entrp">   -331.15495720 </i>
    <i name="e_0_energy">   -331.16260792 </i>
   </energy>
  </scstep>
  <structure>
   <crystal>
    <varray name="basis" >
     <v>      -3.19000000      -3.19000000      -3.19000000 </v>
     <v>       1.59500000       1.59500000      -7.97500000 </v>
     <v>       7.97500000      -7.97500000      -1.59500000 </v>
    </varray>
    <i name="volume">    486.92638500 </i>
    <varray name="rec_basis" >
     <v>      -0.13584117      -0.12539185      -0.05224660 </v>
     <v>       0.04179728       0.06269592      -0.10449321 </v>
     <v>       0.06269592      -0.06269592       0.00000000 </v>
    </varray>
   </crystal>
   <varray name="positions" >
    <v>       0.96666667       0.93333333       0.40000000 </v>
    <v>       0.50000000       0.00000000       0.00000000 </v>
    <v>       0.00000000       0.00000000       0.00000000 </v>
    <v>       0.10000000       0.20000000       0.80000000 </v>
    <v>       0.03333333       0.06666667       0.60000000 </v>
    <v>       0.90000000       0.80000000       0.20000000 </v>
    <v>       0.80000000       0.60000000       0.40000000 </v>
    <v>       0.73333333       0.46666667       0.20000000 </v>
    <v>       0.66666667       0.33333333       0.00000000 </v>
    <v>       0.36666667       0.73333333       0.60000000 </v>
    <v>       0.13333333       0.26666667       0.40000000 </v>
    <v>       0.83333333       0.66666667       0.00000000 </v>
    <v>       0.93333333       0.86666667       0.80000000 </v>
    <v>       0.56666667       0.13333333       0.20000000 </v>
    <v>       0.40000000       0.80000000       0.20000000 </v>
    <v>       0.43333333       0.86666667       0.80000000 </v>
    <v>       0.30000000       0.60000000       0.40000000 </v>
    <v>       0.86666667       0.73333333       0.60000000 </v>
    <v>       0.46666667       0.93333333       0.40000000 </v>
    <v>       0.16666667       0.33333333       0.00000000 </v>
    <v>       0.26666667       0.53333333       0.80000000 </v>
    <v>       0.20000000       0.40000000       0.60000000 </v>
    <v>       0.06666667       0.13333333       0.20000000 </v>
    <v>       0.76666667       0.53333333       0.80000000 </v>
    <v>       0.70000000       0.40000000       0.60000000 </v>
    <v>       0.60000000       0.20000000       0.80000000 </v>
    <v>       0.53333333       0.06666667       0.60000000 </v>
    <v>       0.33333333       0.66666667       0.00000000 </v>
    <v>       0.23333333       0.46666667       0.20000000 </v>
   </varray>
  </structure>
  <varray name="forces" >
   <v>       0.44797074       1.03584930      -0.58324317 </v>
   <v>      -0.05941465       0.25768579      -0.33531974 </v>
   <v>       0.50578162      -0.09534345      -0.16561589 </v>
   <v>       0.08959793       0.54740734      -0.50948077 </v>
   <v>      -0.53620069       0.29201377      -0.30998519 </v>
   <v>       0.33556791      -0.58122868       0.00308809 </v>
   <v>      -0.65208556      -0.29017261       0.59487675 </v>
   <v>       0.25405482      -0.15873660       0.17266183 </v>
   <v>       0.21854259       0.35548479      -0.45506406 </v>
   <v>      -0.30852467      -0.09048281       0.38777639 </v>
   <v>       0.04198488       0.29858726      -0.49113190 </v>
   <v>       0.08888770      -0.40415150       0.30963659 </v>
   <v>       0.22018244       0.44872076      -0.11643876 </v>
   <v>       0.44552161      -0.10929800      -0.57118492 </v>
   <v>      -0.47946982      -0.28831083       0.52759719 </v>
   <v>      -0.79239527      -0.17843389       0.76847369 </v>
   <v>      -0.37780468      -0.82803152       0.48670353 </v>
   <v>      -0.01932353       0.45728832       0.23086963 </v>
   <v>       0.67059544      -0.47715347       0.60257289 </v>
   <v>       0.12340939      -0.48531830      -0.26356244 </v>
   <v>      -0.33592792      -0.00333735      -0.15623284 </v>
   <v>      -0.27893955       0.04451433       0.68478610 </v>
   <v>       0.43785740      -0.19681090      -0.79194966 </v>
   <v>      -0.14636576      -0.21062017       0.63271449 </v>
   <v>       0.37110778       0.19301679      -0.55658332 </v>
   <v>      -0.16113961       0.53736635      -0.10900762 </v>
   <v>      -0.21276039       0.07293810      -0.72931803 </v>
   <v>      -0.10534960      -0.42262073       0.76853281 </v>
   <v>       0.21463945       0.27917792      -0.02617167 </v>
  </varray>
  <varray name="stress" >
   <v>     -37.71753575      -0.07981184      10.03178077 </v>
   <v>      -0.07981184     -31.62220653      -2.78653347 </v>
   <v>      10.03178070      -2.78653349     -32.28867533 </v>
  </varray>
  <energy>
   <i name="e_fr_energy">   -331.16643328 </i>
   <i name="e_wo_entrp">   -331.16260792 </i>
   <i name="e_0_energy">     -0.01147608 </i>
  </energy>
  <time name="totalsc">  530.33  531.33</time>
 </calculation>
 <calculation>
  <scstep>
   <time name="dav">   22.72   22.76</time>
   <time name="total">   23.35   23.39</time>
   <energy>
    <i name="alphaZ">   1314.86254512 </i>
    <i name="ewald"> -10783.29516091 </i>
    <i name="hartreedc">  -2719.54028879 </i>
    <i name="XCdc">   -949.69604347 </i>
    <i name="pawpsdc">  19722.28492482 </i>
    <i name="pawaedc"> -18183.26159627 </i>
    <i name="eentropy">     -0.00585913 </i>
    <i name="bandstr">   -391.26606293 </i>
    <i name="atom">  11656.65998444 </i>
    <i name="e_fr_energy">   -333.25755712 </i>
    <i name="e_wo_entrp">   -333.25169799 </i>
    <i name="e_0_energy">   -333.25560408 </i>
   </energy>
  </scstep>
  <scstep>
   <time name="dav">   27.35   27.39</time>
   <time name="total">   27.98   28.01</time>
   <energy>
    <i name="e_fr_energy">   -333.84722752 </i>
    <i name="e_wo_entrp">   -333.84894307 </i>
    <i name="e_0_energy">   -333.84779937 </i>
   </energy>
  </scstep>
  <scstep>
   <time name="dav">   25.91   25.95</time>
   <time name="total">   26.54   26.57</time>
   <energy>
    <i name="e_fr_energy">   -332.16849212 </i>
    <i name="e_wo_entrp">   -332.16838871 </i>
    <i name="e_0_energy">   -332.16845765 </i>
   </energy>
  </scstep>
  <scstep>
   <time name="dav">   27.30   27.33</time>
   <time name="total">   27.95   28.03</time>
   <energy>
    <i name="e_fr_energy">   -332.05274950 </i>
    <i name="e_wo_entrp">   -332.04997148 </i>
    <i name="e_0_energy">   -332.05182350 </i>
   </energy>
  </scstep>
  <scstep>
   <time name="dav">   26.62   26.65</time>
   <time name="total">   27.24   27.27</time>
   <energy>
    <i name="e_fr_energy">   -331.56610548 </i>
    <i name="e_wo_entrp">   -331.56171677 </i>
    <i name="e_0_energy">   -331.56464258 </i>
   </energy>
  </scstep>
  <scstep>
   <time name="dav">   28.23   28.26</time>
   <time name="total">   28.85   28.88</time>
   <energy>
    <i name="e_fr_energy">   -331.43581480 </i>
    <i name="e_wo_entrp">   -331.43009707 </i>
    <i name="e_0_energy">   -331.43390889 </i>
   </energy>
  </scstep>
  <scstep>
   <time name="dav">   27.37   27.40</time>
   <time name="total">   28.00   28.56</time>
   <energy>
    <i name="e_fr_energy">   -331.45043274 </i>
    <i name="e_wo_entrp">   -331.44621836 </i>
    <i name="e_0_energy">   -331.44902795 </i>
   </energy>
  </scstep>
  <scstep>
   <time name="dav">   26.61   26.64</time>
   <time name="total">   27.23   27.26</time>
   <energy>
    <i name="e_fr_energy">   -331.44271173 </i>
    <i name="e_wo_entrp">   -331.43677755 </i>
    <i name="e_0_energy">   -331.44073367 </i>
   </energy>
  </scstep>
  <scstep>
   <time name="dav">   25.99   26.02</time>
   <time name="total">   26.61   26.64</time>
   <energy>
    <i name="e_fr_energy">   -331.44592191 </i>
    <i name="e_wo_entrp">   -331.44043844 </i>
    <i name="e_0_energy">   -331.44409409 </i>
   </energy>
  </scstep>
  <scstep>
   <time name="dav">   25.99   26.03</time>
   <time name="total">   26.62   26.66</time>
   <energy>
    <i name="e_fr_energy">   -331.44995216 </i>
    <i name="e_wo_entrp">   -331.44409267 </i>
    <i name="e_0_energy">   -331.44799900 </i>
   </energy>
  </scstep>
  <scstep>
   <time name="dav">   26.75   26.78</time>
   <time name="total">   27.39   27.42</time>
   <energy>
    <i name="e_fr_energy">   -331.45010628 </i>
    <i name="e_wo_entrp">   -331.44426467 </i>
    <i name="e_0_energy">   -331.44815907 </i>
   </energy>
  </scstep>
  <scstep>
   <time name="dav">   27.96   28.00</time>
   <time name="total">   28.60   28.64</time>
   <energy>
    <i name="e_fr_energy">   -331.44982261 </i>
    <i name="e_wo_entrp">   -331.44403795 </i>
    <i name="e_0_energy">   -331.44789439 </i>
   </energy>
  </scstep>
  <scstep>
   <time name="dav">   28.72   28.76</time>
   <time name="total">   29.37   29.42</time>
   <energy>
    <i name="e_fr_energy">   -331.44994865 </i>
    <i name="e_wo_entrp">   -331.44411678 </i>
    <i name="e_0_energy">   -331.44800470 </i>
   </energy>
  </scstep>
  <scstep>
   <time name="dav">   26.07   26.11</time>
   <time name="total">   26.70   26.74</time>
   <energy>
    <i name="e_fr_energy">   -331.45000074 </i>
    <i name="e_wo_entrp">   -331.44425789 </i>
    <i name="e_0_energy">   -331.44808645 </i>
   </energy>
  </scstep>
  <scstep>
   <time name="dav">   20.12   20.15</time>
   <time name="total">   20.15   20.18</time>
   <energy>
    <i name="alphaZ">   1314.86254512 </i>
    <i name="ewald"> -10783.29516091 </i>
    <i name="hartreedc">  -2638.64761527 </i>
    <i name="XCdc">   -951.73131939 </i>
    <i name="pawpsdc">  21399.25040885 </i>
    <i name="pawaedc"> -19861.34648873 </i>
    <i name="eentropy">     -0.00578837 </i>
    <i name="bandstr">   -467.19653085 </i>
    <i name="atom">  11656.65998444 </i>
    <i name="e_fr_energy">   -331.44996510 </i>
    <i name="e_wo_entrp">   -331.44417673 </i>
    <i name="e_0_energy">   -331.44803564 </i>
   </energy>
  </scstep>
  <structure>
   <crystal>
    <varray name="basis" >
     <v>      -3.14522010      -3.13437736      -3.14961032 </v>
     <v>       1.52407272       1.58067092      -7.83897072 </v>
     <v>       7.81515651      -7.84557517      -1.51727967 </v>
    </varray>
    <i name="volume">    462.31911028 </i>
    <varray name="rec_basis" >
     <v>      -0.13821526      -0.12751006      -0.05258363 </v>
     <v>       0.04316235       0.06356405      -0.10635881 </v>
     <v>       0.06391427      -0.06371254      -0.00042079 </v>
    </varray>
   </crystal>
   <varray name="positions" >
    <v>       0.95893494       0.94030982       0.39822189 </v>
    <v>       0.49967574       0.00234995      -0.00095911 </v>
    <v>      -0.00232037       0.00156636       0.00181817 </v>
    <v>       0.09738559       0.20440467       0.79861530 </v>
    <v>       0.03586210       0.06803134       0.59749497 </v>
    <v>       0.90130912       0.79890308       0.20277296 </v>
    <v>       0.80452926       0.59480867       0.39890535 </v>
    <v>       0.73219346       0.46582844       0.20124854 </v>
    <v>       0.66423107       0.33714320      -0.00041420 </v>
    <v>       0.36825849       0.73048275       0.59934051 </v>
    <v>       0.13248987       0.27013025       0.39922388 </v>
    <v>       0.83441518       0.66406261       0.00149126 </v>
    <v>       0.92946947       0.86905483       0.79930876 </v>
    <v>       0.56584787       0.13678046       0.20167812 </v>
    <v>       0.40355637       0.79550153       0.19942182 </v>
    <v>       0.43766860       0.86065528       0.79814300 </v>
    <v>       0.30625810       0.59428022       0.40136176 </v>
    <v>       0.86344515       0.73351367       0.59855843 </v>
    <v>       0.46363965       0.93020473       0.40347150 </v>
    <v>       0.16945804       0.33344290       0.00184117 </v>
    <v>       0.26928210       0.53343344       0.79899404 </v>
    <v>       0.19983269       0.39612015       0.59902168 </v>
    <v>       0.06698392       0.13761319       0.20191963 </v>
    <v>       0.76730518       0.52921162       0.80019435 </v>
    <v>       0.69780328       0.40413786       0.60053866 </v>
    <v>       0.59808010       0.20184991       0.79788729 </v>
    <v>       0.53612466       0.07013478       0.59913587 </v>
    <v>       0.33464316       0.66130178       0.00095962 </v>
    <v>       0.23030388       0.46807581       0.19980480 </v>
   </varray>
  </structure>
  <varray name="forces" >
   <v>       0.51692545       0.88204455      -0.46898778 </v>
   <v>       0.03627625       0.10149735      -0.04473966 </v>
   <v>       0.22199727      -0.04650131      -0.18635578 </v>
   <v>      -0.08503609       0.12037637      -0.07857770 </v>
   <v>      -0.24284889       0.18181822      -0.23019457 </v>
   <v>       0.25687078      -0.25009243      -0.08982039 </v>
   <v>      -0.21388568      -0.22067278       0.22363918 </v>
   <v>       0.23632836      -0.34880555       0.34088674 </v>
   <v>       0.09973498       0.06703111      -0.10794598 </v>
   <v>      -0.19996840       0.10563837       0.25630483 </v>
   <v>      -0.07171536       0.04008468      -0.22876672 </v>
   <v>       0.01421338      -0.12214317      -0.02930825 </v>
   <v>      -0.09034559       0.12750140      -0.05394108 </v>
   <v>       0.61368578      -0.46399316      -0.44068890 </v>
   <v>       0.00596443      -0.22111707       0.02951480 </v>
   <v>      -0.13876817       0.08338871       0.33877757 </v>
   <v>      -0.27937458      -0.73474936       0.50670185 </v>
   <v>      -0.20451120       0.31772490       0.12463439 </v>
   <v>       0.28422826      -0.25934062       0.44732198 </v>
   <v>       0.00416468      -0.32080431      -0.07034310 </v>
   <v>      -0.20158253       0.11264434       0.04880050 </v>
   <v>      -0.23735596       0.15507791       0.26841799 </v>
   <v>       0.39171678      -0.13919652      -0.49797218 </v>
   <v>      -0.18591093      -0.07860176       0.07141335 </v>
   <v>      -0.09140688       0.37131670      -0.00675037 </v>
   <v>      -0.00792006       0.28577732      -0.02980146 </v>
   <v>      -0.44887230       0.27410031      -0.42439333 </v>
   <v>      -0.06665557      -0.04826932       0.28656498 </v>
   <v>       0.08405177       0.02826511       0.04560908 </v>
  </varray>
  <varray name="stress" >
   <v>      80.62344602       0.43487338       5.48297590 </v>
   <v>       0.43487346      80.21890459      -0.89724316 </v>
   <v>       5.48297585      -0.89724315      82.28923592 </v>
  </varray>
  <energy>
   <i name="e_fr_energy">   -331.44996510 </i>
   <i name="e_wo_entrp">   -331.44803564 </i>
   <i name="e_0_energy">     -0.00578837 </i>
  </energy>
  <time name="totalsc">  421.70  423.27</time>
 </calculation>
 <calculation>
  <scstep>
   <time name="dav">   22.45   22.48</time>
   <time name="total">   23.08   23.11</time>
   <energy>
    <i name="alphaZ">   1290.37017776 </i>
    <i name="ewald"> -10693.23628312 </i>
    <i name="hartreedc">  -2644.24049614 </i>
    <i name="XCdc">   -953.72287520 </i>
    <i name="pawpsdc">  21399.01841555 </i>
    <i name="pawaedc"> -19861.08829017 </i>
    <i name="eentropy">     -0.00550392 </i>
    <i name="bandstr">   -525.56626492 </i>
    <i name="atom">  11656.65998444 </i>
    <i name="e_fr_energy">   -331.81113572 </i>
    <i name="e_wo_entrp">   -331.80563180 </i>
    <i name="e_0_energy">   -331.80930108 </i>
   </energy>
  </scstep>
  <scstep>
   <time name="dav">   28.78   28.81</time>
   <time name="total">   29.40   29.44</time>
   <energy>
    <i name="e_fr_energy">   -331.91135815 </i>
    <i name="e_wo_entrp">   -331.90419757 </i>
    <i name="e_0_energy">   -331.90897129 </i>
   </energy>
  </scstep>
  <scstep>
   <time name="dav">   25.09   25.12</time>
   <time name="total">   25.72   25.75</time>
   <energy>
    <i name="e_fr_energy">   -331.75298479 </i>
    <i name="e_wo_entrp">   -331.74770821 </i>
    <i name="e_0_energy">   -331.75122593 </i>
   </energy>
  </scstep>
  <scstep>
   <time name="dav">   26.85   26.88</time>
   <time name="total">   27.47   27.49</time>
   <energy>
    <i name="e_fr_energy">   -331.67300086 </i>
    <i name="e_wo_entrp">   -331.66671179 </i>
    <i name="e_0_energy">   -331.67090450 </i>
   </energy>
  </scstep>
  <scstep>
   <time name="dav">   25.66   25.69</time>
   <time name="total">   26.28   26.30</time>
   <energy>
    <i name="e_fr_energy">   -331.61083138 </i>
    <i name="e_wo_entrp">   -331.60365137 </i>
    <i name="e_0_energy">   -331.60843804 </i>
   </energy>
  </scstep>
  <scstep>
   <time name="dav">   26.28   26.31</time>
   <time name="total">   26.91   26.94</time>
   <energy>
    <i name="e_fr_energy">   -331.59289755 </i>
    <i name="e_wo_entrp">   -331.58632245 </i>
    <i name="e_0_energy">   -331.59070585 </i>
   </energy>
  </scstep>
  <scstep>
   <time name="dav">   26.74   26.77</time>
   <time name="total">   27.36   27.39</time>
   <energy>
    <i name="e_fr_energy">   -331.59321983 </i>
    <i name="e_wo_entrp">   -331.58553894 </i>
    <i name="e_0_energy">   -331.59065954 </i>
   </energy>
  </scstep>
  <scstep>
   <time name="dav">   25.94   25.97</time>
   <time name="total">   26.56   26.59</time>
   <energy>
    <i name="e_fr_energy">   -331.59207746 </i>
    <i name="e_wo_entrp">   -331.58500817 </i>
    <i name="e_0_energy">   -331.58972103 </i>
   </energy>
  </scstep>
  <scstep>
   <time name="dav">   24.95   24.98</time>
   <time name="total">   25.58   25.61</time>
   <energy>
    <i name="e_fr_energy">   -331.59205908 </i>
    <i name="e_wo_entrp">   -331.58485294 </i>
    <i name="e_0_energy">   -331.58965703 </i>
   </energy>
  </scstep>
  <scstep>
   <time name="dav">   25.12   25.14</time>
   <time name="total">   25.73   25.76</time>
   <energy>
    <i name="e_fr_energy">   -331.59267061 </i>
    <i name="e_wo_entrp">   -331.58548407 </i>
    <i name="e_0_energy">   -331.59027510 </i>
   </energy>
  </scstep>
  <scstep>
   <time name="dav">   26.40   26.43</time>
   <time name="total">   27.02   27.05</time>
   <energy>
    <i name="e_fr_energy">   -331.59276967 </i>
    <i name="e_wo_entrp">   -331.58559756 </i>
    <i name="e_0_energy">   -331.59037897 </i>
   </energy>
  </scstep>
  <scstep>
   <time name="dav">   24.91   24.94</time>
   <time name="total">   25.53   25.56</time>
   <energy>
    <i name="e_fr_energy">   -331.59267359 </i>
    <i name="e_wo_entrp">   -331.58543746 </i>
    <i name="e_0_energy">   -331.59026155 </i>
   </energy>
  </scstep>
  <scstep>
   <time name="dav">   20.75   20.77</time>
   <time name="total">   20.78   20.81</time>
   <energy>
    <i name="alphaZ">   1290.37017776 </i>
    <i name="ewald"> -10693.23628312 </i>
    <i name="hartreedc">  -2673.15577378 </i>
    <i name="XCdc">   -952.99487123 </i>
    <i name="pawpsdc">  20756.83288303 </i>
    <i name="pawaedc"> -19218.25528033 </i>
    <i name="eentropy">     -0.00720575 </i>
    <i name="bandstr">   -497.80629933 </i>
    <i name="atom">  11656.65998444 </i>
    <i name="e_fr_energy">   -331.59266830 </i>
    <i name="e_wo_entrp">   -331.58546255 </i>
    <i name="e_0_energy">   -331.59026638 </i>
   </energy>
  </scstep>
  <structure>
   <crystal>
    <varray name="basis" >
     <v>      -3.16136110      -3.15442665      -3.16416886 </v>
     <v>       1.54963860       1.58583587      -7.88800274 </v>
     <v>       7.87277241      -7.89222660      -1.54529411 </v>
    </varray>
    <i name="volume">    471.09433594 </i>
    <varray name="rec_basis" >
     <v>      -0.13734932      -0.12673853      -0.05246300 </v>
     <v>       0.04266199       0.06324851      -0.10567790 </v>
     <v>       0.06346920      -0.06334218      -0.00026572 </v>
    </varray>
   </crystal>
   <varray name="positions" >
    <v>       0.96177509       0.93774994       0.39886737 </v>
    <v>       0.49979769       0.00148955      -0.00061003 </v>
    <v>      -0.00146759       0.00098582       0.00114920 </v>
    <v>       0.09834884       0.20279008       0.79911847 </v>
    <v>       0.03493740       0.06753771       0.59841217 </v>
    <v>       0.90082970       0.79929938       0.20175608 </v>
    <v>       0.80286256       0.59671906       0.39931296 </v>
    <v>       0.73260998       0.46613255       0.20079157 </v>
    <v>       0.66512844       0.33574461      -0.00026657 </v>
    <v>       0.36767092       0.73153152       0.59958600 </v>
    <v>       0.13280375       0.26886036       0.39950443 </v>
    <v>       0.83401582       0.66501529       0.00094697 </v>
    <v>       0.93088714       0.86817823       0.79956033 </v>
    <v>       0.56615402       0.13551048       0.20105769 </v>
    <v>       0.40224715       0.79715586       0.19963915 </v>
    <v>       0.43607116       0.86286853       0.79883162 </v>
    <v>       0.30395911       0.59637919       0.40086784 </v>
    <v>       0.86462375       0.73344971       0.59908823 </v>
    <v>       0.46474439       0.93134327       0.40220196 </v>
    <v>       0.16843756       0.33339925       0.00116439 </v>
    <v>       0.26832445       0.53340031       0.79936256 </v>
    <v>       0.19988714       0.39754682       0.59938602 </v>
    <v>       0.06687575       0.13603739       0.20120914 </v>
    <v>       0.76706493       0.53072448       0.80012830 </v>
    <v>       0.69861426       0.40261658       0.60033597 </v>
    <v>       0.59878464       0.20117529       0.79866093 </v>
    <v>       0.53510815       0.06886498       0.59944781 </v>
    <v>       0.33415561       0.66326938       0.00061411 </v>
    <v>       0.23141484       0.46755772       0.19987535 </v>
   </varray>
  </structure>
  <varray name="forces" >
   <v>       0.49936619       0.96544391      -0.52366287 </v>
   <v>      -0.00347427       0.16500374      -0.16125932 </v>
   <v>       0.33206754      -0.06244732      -0.18166241 </v>
   <v>      -0.01405882       0.29376636      -0.25202661 </v>
   <v>      -0.35899690       0.22719996      -0.26518199 </v>
   <v>       0.29299921      -0.38745652      -0.04456527 </v>
   <v>      -0.40099013      -0.25109586       0.38985180 </v>
   <v>       0.25828773      -0.28344426       0.27278741 </v>
   <v>       0.15310632       0.19211999      -0.25808262 </v>
   <v>      -0.25601881       0.01524923       0.31884199 </v>
   <v>      -0.01537136       0.14855957      -0.34629186 </v>
   <v>       0.02353728      -0.24683609       0.10170526 </v>
   <v>       0.02350489       0.26554425      -0.10502742 </v>
   <v>       0.55333336      -0.33658347      -0.48986993 </v>
   <v>      -0.18350653      -0.24697695       0.23092050 </v>
   <v>      -0.37911750      -0.01325747       0.50638833 </v>
   <v>      -0.31921402      -0.78264794       0.50654354 </v>
   <v>      -0.13598096       0.37802748       0.17608368 </v>
   <v>       0.43848824      -0.34841748       0.50520452 </v>
   <v>       0.05688435      -0.38975041      -0.15625537 </v>
   <v>      -0.26166553       0.06523137      -0.02097735 </v>
   <v>      -0.26193699       0.11194621       0.43755629 </v>
   <v>       0.41779238      -0.16360530      -0.62034045 </v>
   <v>      -0.17782097      -0.13188707       0.32007097 </v>
   <v>       0.09977262       0.30853802      -0.23415959 </v>
   <v>      -0.07229904       0.39127341      -0.05916793 </v>
   <v>      -0.35749070       0.19905845      -0.56105861 </v>
   <v>      -0.08863910      -0.21129815       0.49416297 </v>
   <v>       0.13744151       0.12874233       0.01947234 </v>
  </varray>
  <varray name="stress" >
   <v>      34.48364727       0.31676099       7.70734241 </v>
   <v>       0.31676104      36.98542701      -1.42552506 </v>
   <v>       7.70734241      -1.42552497      38.11091465 </v>
  </varray>
  <energy>
   <i name="e_fr_energy">   -331.59266830 </i>
   <i name="e_wo_entrp">   -331.59026638 </i>
   <i name="e_0_energy">     -0.00720575 </i>
  </energy>
  <time name="totalsc">  355.53  355.97</time>
 </calculation>
 <calculation>
  <scstep>
   <time name="dav">   19.39   19.41</time>
   <time name="total">   20.01   20.03</time>
   <energy>
    <i name="alphaZ">   1278.38315056 </i>
    <i name="ewald"> -10722.02821583 </i>
    <i name="hartreedc">  -2604.68536729 </i>
    <i name="XCdc">   -954.20852819 </i>
    <i name="pawpsdc">  20756.69721204 </i>
    <i name="pawaedc"> -19218.18314143 </i>
    <i name="eentropy">     -0.00422919 </i>
    <i name="bandstr">   -524.40316119 </i>
    <i name="atom">  11656.65998444 </i>
    <i name="e_fr_energy">   -331.77229607 </i>
    <i name="e_wo_entrp">   -331.76806689 </i>
    <i name="e_0_energy">   -331.77088634 </i>
   </energy>
  </scstep>
  <scstep>
   <time name="dav">   25.11   25.14</time>
   <time name="total">   25.72   25.75</time>
   <energy>
    <i name="e_fr_energy">   -332.19707675 </i>
    <i name="e_wo_entrp">   -332.19445141 </i>
    <i name="e_0_energy">   -332.19620164 </i>
   </energy>
  </scstep>
  <scstep>
   <time name="dav">   25.98   26.01</time>
   <time name="total">   26.60   26.63</time>
   <energy>
    <i name="e_fr_energy">   -332.13241761 </i>
    <i name="e_wo_entrp">   -332.12927989 </i>
    <i name="e_0_energy">   -332.13137171 </i>
   </energy>
  </scstep>
  <scstep>
   <time name="dav">   25.63   25.66</time>
   <time name="total">   26.25   26.30</time>
   <energy>
    <i name="e_fr_energy">   -332.07052186 </i>
    <i name="e_wo_entrp">   -332.06635723 </i>
    <i name="e_0_energy">   -332.06913365 </i>
   </energy>
  </scstep>
  <scstep>
   <time name="dav">   26.02   26.05</time>
   <time name="total">   26.65   26.68</time>
   <energy>
    <i name="e_fr_energy">   -332.05498095 </i>
    <i name="e_wo_entrp">   -332.05145965 </i>
    <i name="e_0_energy">   -332.05380719 </i>
   </energy>
  </scstep>
  <scstep>
   <time name="dav">   26.71   26.73</time>
   <time name="total">   27.33   27.36</time>
   <energy>
    <i name="e_fr_energy">   -332.05487435 </i>
    <i name="e_wo_entrp">   -332.05020952 </i>
    <i name="e_0_energy">   -332.05331941 </i>
   </energy>
  </scstep>
  <scstep>
   <time name="dav">   26.77   26.80</time>
   <time name="total">   27.39   27.43</time>
   <energy>
    <i name="e_fr_energy">   -332.04375035 </i>
    <i name="e_wo_entrp">   -332.04048896 </i>
    <i name="e_0_energy">   -332.04266322 </i>
   </energy>
  </scstep>
  <scstep>
   <time name="dav">   26.56   26.59</time>
   <time name="total">   27.18   27.21</time>
   <energy>
    <i name="e_fr_energy">   -332.04192776 </i>
    <i name="e_wo_entrp">   -332.03769607 </i>
    <i name="e_0_energy">   -332.04051720 </i>
   </energy>
  </scstep>
  <scstep>
   <time name="dav">   24.68   24.71</time>
   <time name="total">   25.31   25.34</time>
   <energy>
    <i name="e_fr_energy">   -332.04144971 </i>
    <i name="e_wo_entrp">   -332.03743364 </i>
    <i name="e_0_energy">   -332.04011102 </i>
   </energy>
  </scstep>
  <scstep>
   <time name="dav">   25.43   25.46</time>
   <time name="total">   26.08   26.12</time>
   <energy>
    <i name="e_fr_energy">   -332.04129923 </i>
    <i name="e_wo_entrp">   -332.03733843 </i>
    <i name="e_0_energy">   -332.03997897 </i>
   </energy>
  </scstep>
  <scstep>
   <time name="dav">   25.09   25.12</time>
   <time name="total">   25.72   25.75</time>
   <energy>
    <i name="e_fr_energy">   -332.04150500 </i>
    <i name="e_wo_entrp">   -332.03748170 </i>
    <i name="e_0_energy">   -332.04016390 </i>
   </energy>
  </scstep>
  <scstep>
   <time name="dav">   23.79   23.81</time>
   <time name="total">   24.42   24.44</time>
   <energy>
    <i name="e_fr_energy">   -332.04132294 </i>
    <i name="e_wo_entrp">   -332.03734811 </i>
    <i name="e_0_energy">   -332.03999800 </i>
   </energy>
  </scstep>
  <scstep>
   <time name="dav">   18.02   18.04</time>
   <time name="total">   18.07   18.10</time>
   <energy>
    <i name="alphaZ">   1278.38315056 </i>
    <i name="ewald"> -10722.02821583 </i>
    <i name="hartreedc">  -2615.91307139 </i>
    <i name="XCdc">   -953.83661973 </i>
    <i name="pawpsdc">  20395.47740668 </i>
    <i name="pawaedc"> -18857.46193117 </i>
    <i name="eentropy">     -0.00398113 </i>
    <i name="bandstr">   -513.31800794 </i>
    <i name="atom">  11656.65998444 </i>
    <i name="e_fr_energy">   -332.04128553 </i>
    <i name="e_wo_entrp">   -332.03730439 </i>
    <i name="e_0_energy">   -332.03995848 </i>
   </energy>
  </scstep>
  <structure>
   <crystal>
    <varray name="basis" >
     <v>      -3.18250158      -3.16309903      -3.18951660 </v>
     <v>       1.51142109       1.60152142      -7.91394622 </v>
     <v>       7.87560016      -7.92022957      -1.50161318 </v>
    </varray>
    <i name="volume">    475.51165058 </i>
    <varray name="rec_basis" >
     <v>      -0.13687391      -0.12630081      -0.05169956 </v>
     <v>       0.04313659       0.06287594      -0.10539688 </v>
     <v>       0.06338578      -0.06310434      -0.00066469 </v>
    </varray>
   </crystal>
   <varray name="positions" >
    <v>       0.95244634       0.94584803       0.39699650 </v>
    <v>       0.49923836       0.00359949      -0.00145232 </v>
    <v>      -0.00359198       0.00276064       0.00291186 </v>
    <v>       0.09626522       0.20653282       0.79777100 </v>
    <v>       0.03736901       0.06911993       0.59590518 </v>
    <v>       0.90187509       0.79849586       0.20459976 </v>
    <v>       0.80738211       0.59160259       0.39842358 </v>
    <v>       0.73156765       0.46454220       0.20255117 </v>
    <v>       0.66282294       0.33922198      -0.00055613 </v>
    <v>       0.36903951       0.72862798       0.59867884 </v>
    <v>       0.13240592       0.27213521       0.39876986 </v>
    <v>       0.83531778       0.66283725       0.00227657 </v>
    <v>       0.92785375       0.87036079       0.79870627 </v>
    <v>       0.56547390       0.13906521       0.20376791 </v>
    <v>       0.40554474       0.79325457       0.19945959 </v>
    <v>       0.43922162       0.85744013       0.79709949 </v>
    <v>       0.31099732       0.58961843       0.40251772 </v>
    <v>       0.86169955       0.73352579       0.59727938 </v>
    <v>       0.46179150       0.92788304       0.40562124 </v>
    <v>       0.17150240       0.33327494       0.00304390 </v>
    <v>       0.27061963       0.53329350       0.79816703 </v>
    <v>       0.19976828       0.39388918       0.59809937 </v>
    <v>       0.06690140       0.14064010       0.20341557 </v>
    <v>       0.76819120       0.52696158       0.80012754 </v>
    <v>       0.69615165       0.40635022       0.60019686 </v>
    <v>       0.59659937       0.20304081       0.79660914 </v>
    <v>       0.53828340       0.07250580       0.59786441 </v>
    <v>       0.33526761       0.65822390       0.00135620 </v>
    <v>       0.22866139       0.46868134       0.19979253 </v>
   </varray>
  </structure>
  <varray name="forces" >
   <v>       0.33517918       0.53617217      -0.12354229 </v>
   <v>       0.00780992      -0.05935999       0.10559514 </v>
   <v>       0.04386007      -0.02185507      -0.03986427 </v>
   <v>      -0.11985633      -0.06501023       0.15801343 </v>
   <v>      -0.02931807      -0.00348020      -0.18097109 </v>
   <v>       0.12326250      -0.06965218      -0.09417208 </v>
   <v>      -0.05478553      -0.13670746       0.02561717 </v>
   <v>       0.14579717      -0.13329041       0.13069538 </v>
   <v>       0.00792768      -0.04144621       0.03983709 </v>
   <v>      -0.09788448       0.14996641       0.17988888 </v>
   <v>      -0.10461037      -0.04161392      -0.13984063 </v>
   <v>       0.06885674       0.09313714      -0.16075242 </v>
   <v>      -0.04603831       0.02384378      -0.05889346 </v>
   <v>       0.38008764      -0.36222441      -0.19272169 </v>
   <v>       0.05582156      -0.10377696       0.01917384 </v>
   <v>       0.05568344       0.11062164       0.05223132 </v>
   <v>      -0.21333688      -0.28415741       0.22686236 </v>
   <v>      -0.15927772       0.21386213       0.01337672 </v>
   <v>       0.09084013      -0.10847681       0.38297600 </v>
   <v>      -0.03041635      -0.18934184      -0.02842535 </v>
   <v>      -0.07567506       0.10480773       0.07235410 </v>
   <v>      -0.14247625       0.16611551       0.12409486 </v>
   <v>       0.22384541      -0.14756847      -0.30892374 </v>
   <v>      -0.10794739       0.03699223      -0.16118104 </v>
   <v>      -0.10214999       0.20464390       0.12069263 </v>
   <v>      -0.08310625       0.07714575       0.06212708 </v>
   <v>      -0.25644337       0.03789341      -0.10508929 </v>
   <v>       0.03412737       0.05200499      -0.05968219 </v>
   <v>       0.05022352      -0.03924523      -0.05947645 </v>
  </varray>
  <varray name="stress" >
   <v>      16.27246091       0.32683860       2.56446107 </v>
   <v>       0.32683857      12.38259377       1.11276571 </v>
   <v>       2.56446115       1.11276571      15.05759992 </v>
  </varray>
  <energy>
   <i name="e_fr_energy">   -332.04128553 </i>
   <i name="e_wo_entrp">   -332.03995848 </i>
   <i name="e_0_energy">     -0.00398113 </i>
  </energy>
  <time name="totalsc">  344.79  345.24</time>
 </calculation>
 <calculation>
  <scstep>
   <time name="dav">   19.47   19.49</time>
   <time name="total">   20.10   20.12</time>
   <energy>
    <i name="alphaZ">   1273.17973552 </i>
    <i name="ewald"> -10731.54913112 </i>
    <i name="hartreedc">  -2588.54237950 </i>
    <i name="XCdc">   -954.36158041 </i>
    <i name="pawpsdc">  20395.27888224 </i>
    <i name="pawaedc"> -18857.26398883 </i>
    <i name="eentropy">     -0.00378344 </i>
    <i name="bandstr">   -525.43209672 </i>
    <i name="atom">  11656.65998444 </i>
    <i name="e_fr_energy">   -332.03435782 </i>
    <i name="e_wo_entrp">   -332.03057438 </i>
    <i name="e_0_energy">   -332.03309667 </i>
   </energy>
  </scstep>
  <scstep>
   <time name="dav">   26.00   26.02</time>
   <time name="total">   26.62   26.65</time>
   <energy>
    <i name="e_fr_energy">   -332.12256877 </i>
    <i name="e_wo_entrp">   -332.11947459 </i>
    <i name="e_0_energy">   -332.12153738 </i>
   </energy>
  </scstep>
  <scstep>
   <time name="dav">   25.37   25.39</time>
   <time name="total">   25.99   26.03</time>
   <energy>
    <i name="e_fr_energy">   -332.10703324 </i>
    <i name="e_wo_entrp">   -332.10343866 </i>
    <i name="e_0_energy">   -332.10583505 </i>
   </energy>
  </scstep>
  <scstep>
   <time name="dav">   26.53   26.56</time>
   <time name="total">   27.16   27.19</time>
   <energy>
    <i name="e_fr_energy">   -332.09539236 </i>
    <i name="e_wo_entrp">   -332.09193049 </i>
    <i name="e_0_energy">   -332.09423840 </i>
   </energy>
  </scstep>
  <scstep>
   <time name="dav">   25.64   25.67</time>
   <time name="total">   26.27   26.29</time>
   <energy>
    <i name="e_fr_energy">   -332.09228852 </i>
    <i name="e_wo_entrp">   -332.08888961 </i>
    <i name="e_0_energy">   -332.09115555 </i>
   </energy>
  </scstep>
  <scstep>
   <time name="dav">   26.88   26.91</time>
   <time name="total">   27.52   27.57</time>
   <energy>
    <i name="e_fr_energy">   -332.09245312 </i>
    <i name="e_wo_entrp">   -332.08881834 </i>
    <i name="e_0_energy">   -332.09124153 </i>
   </energy>
  </scstep>
  <scstep>
   <time name="dav">   27.06   27.09</time>
   <time name="total">   27.69   27.72</time>
   <energy>
    <i name="e_fr_energy">   -332.09031111 </i>
    <i name="e_wo_entrp">   -332.08705438 </i>
    <i name="e_0_energy">   -332.08922553 </i>
   </energy>
  </scstep>
  <scstep>
   <time name="dav">   25.41   25.44</time>
   <time name="total">   26.03   26.06</time>
   <energy>
    <i name="e_fr_energy">   -332.09015759 </i>
    <i name="e_wo_entrp">   -332.08653050 </i>
    <i name="e_0_energy">   -332.08894856 </i>
   </energy>
  </scstep>
  <scstep>
   <time name="dav">   23.34   23.36</time>
   <time name="total">   23.96   24.00</time>
   <energy>
    <i name="e_fr_energy">   -332.09008096 </i>
    <i name="e_wo_entrp">   -332.08663936 </i>
    <i name="e_0_energy">   -332.08893376 </i>
   </energy>
  </scstep>
  <scstep>
   <time name="dav">   17.73   17.75</time>
   <time name="total">   17.76   17.79</time>
   <energy>
    <i name="alphaZ">   1273.17973552 </i>
    <i name="ewald"> -10731.54913112 </i>
    <i name="hartreedc">  -2593.98742406 </i>
    <i name="XCdc">   -954.18833952 </i>
    <i name="pawpsdc">  20261.42463148 </i>
    <i name="pawaedc"> -18723.38190312 </i>
    <i name="eentropy">     -0.00347347 </i>
    <i name="bandstr">   -520.24413556 </i>
    <i name="atom">  11656.65998444 </i>
    <i name="e_fr_energy">   -332.09005540 </i>
    <i name="e_wo_entrp">   -332.08658193 </i>
    <i name="e_0_energy">   -332.08889758 </i>
   </energy>
  </scstep>
  <structure>
   <crystal>
    <varray name="basis" >
     <v>      -3.19180362      -3.16691497      -3.20066988 </v>
     <v>       1.49460497       1.60842324      -7.92536163 </v>
     <v>       7.87684441      -7.93255118      -1.48239310 </v>
    </varray>
    <i name="volume">    477.45504036 </i>
    <varray name="rec_basis" >
     <v>      -0.13666764      -0.12610873      -0.05136678 </v>
     <v>       0.04334411       0.06271310      -0.10527576 </v>
     <v>       0.06335042      -0.06300056      -0.00083879 </v>
    </varray>
   </crystal>
   <varray name="positions" >
    <v>       0.94834772       0.94940374       0.39618379 </v>
    <v>       0.49898963       0.00452395      -0.00181926 </v>
    <v>      -0.00452606       0.00354594       0.00368789 </v>
    <v>       0.09534624       0.20817366       0.79718412 </v>
    <v>       0.03843106       0.06980649       0.59480738 </v>
    <v>       0.90233315       0.79815029       0.20584776 </v>
    <v>       0.80937090       0.58935110       0.39802689 </v>
    <v>       0.73111397       0.46384927       0.20332119 </v>
    <v>       0.66180696       0.34074932      -0.00067888 </v>
    <v>       0.36964474       0.72734981       0.59827658 </v>
    <v>       0.13222547       0.27357140       0.39845202 </v>
    <v>       0.83589149       0.66188384       0.00285768 </v>
    <v>       0.92652203       0.87131843       0.79833342 </v>
    <v>       0.56516798       0.14063390       0.20496323 </v>
    <v>       0.40699598       0.79153927       0.19937603 </v>
    <v>       0.44061216       0.85505009       0.79633176 </v>
    <v>       0.31409081       0.58665056       0.40323459 </v>
    <v>       0.86042025       0.73355579       0.59648410 </v>
    <v>       0.46050473       0.92637462       0.40711670 </v>
    <v>       0.17284333       0.33322388       0.00387017 </v>
    <v>       0.27162486       0.53324209       0.79764263 </v>
    <v>       0.19972415       0.39227964       0.59752880 </v>
    <v>       0.06690246       0.14266719       0.20439144 </v>
    <v>       0.76869174       0.52530869       0.80012196 </v>
    <v>       0.69506633       0.40799060       0.60014050 </v>
    <v>       0.59563996       0.20385549       0.79571009 </v>
    <v>       0.53966640       0.07409844       0.59717556 </v>
    <v>       0.33576421       0.65600987       0.00167494 </v>
    <v>       0.22745402       0.46917597       0.19975689 </v>
   </varray>
  </structure>
  <varray name="forces" >
   <v>       0.27667258       0.34028800       0.03703795 </v>
   <v>       0.00917394      -0.15708004       0.21795121 </v>
   <v>      -0.06928470      -0.00056060       0.01747165 </v>
   <v>      -0.17375110      -0.22352860       0.33088969 </v>
   <v>       0.10744979      -0.09759091      -0.15485371 </v>
   <v>       0.04036679       0.06975668      -0.10528679 </v>
   <v>       0.11751627      -0.07201503      -0.14509599 </v>
   <v>       0.08533030      -0.06537696       0.06241671 </v>
   <v>      -0.05975642      -0.14641995       0.17975183 </v>
   <v>      -0.02318055       0.20015215       0.10380463 </v>
   <v>      -0.15493237      -0.13282221      -0.03968440 </v>
   <v>       0.10407548       0.21910346      -0.25728936 </v>
   <v>      -0.08857570      -0.04954209      -0.05831000 </v>
   <v>       0.31650337      -0.38243150      -0.07483814 </v>
   <v>       0.16335279      -0.05922864      -0.06559716 </v>
   <v>       0.22285575       0.16570332      -0.09881588 </v>
   <v>      -0.17325157      -0.08597123       0.11870724 </v>
   <v>      -0.16341477       0.15673383      -0.06443651 </v>
   <v>      -0.06151630      -0.00174278       0.32555172 </v>
   <v>      -0.06548452      -0.08861040       0.02945316 </v>
   <v>       0.00339072       0.11549888       0.11442969 </v>
   <v>      -0.08393231       0.18129031      -0.01088051 </v>
   <v>       0.15069803      -0.13321545      -0.18266296 </v>
   <v>      -0.06635020       0.11897818      -0.37721085 </v>
   <v>      -0.19798930       0.14898007       0.28662455 </v>
   <v>      -0.08563660      -0.05305161       0.10199689 </v>
   <v>      -0.21973706      -0.02408074       0.09822902 </v>
   <v>       0.08429560       0.16969959      -0.29829177 </v>
   <v>       0.00511205      -0.11291573      -0.09106191 </v>
  </varray>
  <varray name="stress" >
   <v>       9.95222490      -0.10699860       0.18799530 </v>
   <v>      -0.10699857       3.68159833       2.22704970 </v>
   <v>       0.18799527       2.22704971       6.96260331 </v>
  </varray>
  <energy>
   <i name="e_fr_energy">   -332.09005540 </i>
   <i name="e_wo_entrp">   -332.08889758 </i>
   <i name="e_0_energy">     -0.00347347 </i>
  </energy>
  <time name="totalsc">  267.18  267.52</time>
 </calculation>
 <calculation>
  <scstep>
   <time name="dav">   18.75   18.79</time>
   <time name="total">   19.39   19.43</time>
   <energy>
    <i name="alphaZ">   1263.78167464 </i>
    <i name="ewald"> -10704.57619978 </i>
    <i name="hartreedc">  -2588.45575565 </i>
    <i name="XCdc">   -955.01179737 </i>
    <i name="pawpsdc">  20259.55071510 </i>
    <i name="pawaedc"> -18721.65134944 </i>
    <i name="eentropy">     -0.00160694 </i>
    <i name="bandstr">   -542.43737778 </i>
    <i name="atom">  11656.65998444 </i>
    <i name="e_fr_energy">   -332.14171278 </i>
    <i name="e_wo_entrp">   -332.14010585 </i>
    <i name="e_0_energy">   -332.14117714 </i>
   </energy>
  </scstep>
  <scstep>
   <time name="dav">   25.31   25.34</time>
   <time name="total">   26.02   26.78</time>
   <energy>
    <i name="e_fr_energy">   -332.18979691 </i>
    <i name="e_wo_entrp">   -332.18516761 </i>
    <i name="e_0_energy">   -332.18825381 </i>
   </energy>
  </scstep>
  <scstep>
   <time name="dav">   25.62   25.65</time>
   <time name="total">   26.25   26.28</time>
   <energy>
    <i name="e_fr_energy">   -332.17924567 </i>
    <i name="e_wo_entrp">   -332.17822259 </i>
    <i name="e_0_energy">   -332.17890464 </i>
   </energy>
  </scstep>
  <scstep>
   <time name="dav">   26.56   26.59</time>
   <time name="total">   27.19   27.22</time>
   <energy>
    <i name="e_fr_energy">   -332.15632282 </i>
    <i name="e_wo_entrp">   -332.15437219 </i>
    <i name="e_0_energy">   -332.15567261 </i>
   </energy>
  </scstep>
  <scstep>
   <time name="dav">   26.06   26.09</time>
   <time name="total">   26.69   26.73</time>
   <energy>
    <i name="e_fr_energy">   -332.14722829 </i>
    <i name="e_wo_entrp">   -332.14491060 </i>
    <i name="e_0_energy">   -332.14645572 </i>
   </energy>
  </scstep>
  <scstep>
   <time name="dav">   27.23   27.26</time>
   <time name="total">   27.85   27.88</time>
   <energy>
    <i name="e_fr_energy">   -332.14536308 </i>
    <i name="e_wo_entrp">   -332.14249591 </i>
    <i name="e_0_energy">   -332.14440736 </i>
   </energy>
  </scstep>
  <scstep>
   <time name="dav">   26.83   26.86</time>
   <time name="total">   27.45   27.49</time>
   <energy>
    <i name="e_fr_energy">   -332.14521192 </i>
    <i name="e_wo_entrp">   -332.14292298 </i>
    <i name="e_0_energy">   -332.14444894 </i>
   </energy>
  </scstep>
  <scstep>
   <time name="dav">   24.19   24.22</time>
   <time name="total">   24.82   24.85</time>
   <energy>
    <i name="e_fr_energy">   -332.14489762 </i>
    <i name="e_wo_entrp">   -332.14236806 </i>
    <i name="e_0_energy">   -332.14405443 </i>
   </energy>
  </scstep>
  <scstep>
   <time name="dav">   22.74   22.76</time>
   <time name="total">   23.36   23.39</time>
   <energy>
    <i name="e_fr_energy">   -332.14493411 </i>
    <i name="e_wo_entrp">   -332.14248590 </i>
    <i name="e_0_energy">   -332.14411804 </i>
   </energy>
  </scstep>
  <scstep>
   <time name="dav">   20.78   20.80</time>
   <time name="total">   20.81   20.83</time>
   <energy>
    <i name="alphaZ">   1263.78167464 </i>
    <i name="ewald"> -10704.57619978 </i>
    <i name="hartreedc">  -2599.62412896 </i>
    <i name="XCdc">   -954.71873122 </i>
    <i name="pawpsdc">  19999.98520186 </i>
    <i name="pawaedc"> -18461.70936009 </i>
[...]
       <r>    4.5994    1.0000 </r>
       <r>    4.6521    1.0000 </r>
       <r>    4.7471    1.0000 </r>
       <r>    4.8063    1.0000 </r>
       <r>    4.8381    1.0000 </r>
       <r>    4.8965    1.0000 </r>
       <r>    4.9646    1.0000 </r>
       <r>    4.9858    1.0000 </r>
       <r>    5.0602    1.0000 </r>
       <r>    5.1114    1.0000 </r>
       <r>    5.1749    1.0000 </r>
       <r>    5.2486    1.0000 </r>
       <r>    5.2874    1.0000 </r>
       <r>    5.3271    1.0000 </r>
       <r>    5.4379    1.0000 </r>
       <r>    5.5025    1.0000 </r>
       <r>    5.5366    1.0000 </r>
       <r>    5.5943    1.0000 </r>
       <r>    5.6361    1.0000 </r>
       <r>    5.6763    1.0000 </r>
       <r>    5.7555    1.0000 </r>
       <r>    5.8060    1.0000 </r>
       <r>    5.9158    1.0000 </r>
       <r>    5.9478    1.0000 </r>
       <r>    5.9840    1.0001 </r>
       <r>    6.0064    1.0001 </r>
       <r>    6.0628    1.0005 </r>
       <r>    6.0938    1.0011 </r>
       <r>    6.1709    1.0051 </r>
       <r>    6.2146    1.0104 </r>
       <r>    6.2782    1.0232 </r>
       <r>    6.3174    1.0318 </r>
       <r>    6.3484    1.0354 </r>
       <r>    6.4210    1.0082 </r>
       <r>    6.4915    0.8860 </r>
       <r>    6.6113    0.4416 </r>
       <r>    6.6704    0.2131 </r>
       <r>    6.7186    0.0775 </r>
       <r>    6.8058   -0.0289 </r>
       <r>    6.9331   -0.0195 </r>
       <r>    7.0181   -0.0056 </r>
       <r>    7.0874   -0.0014 </r>
       <r>    7.1915   -0.0001 </r>
       <r>    7.3377   -0.0000 </r>
       <r>    7.5145   -0.0000 </r>
       <r>    7.6518   -0.0000 </r>
       <r>    7.7225   -0.0000 </r>
       <r>    7.8073   -0.0000 </r>
       <r>    7.9684   -0.0000 </r>
       <r>    8.0140   -0.0000 </r>
       <r>    8.3456   -0.0000 </r>
       <r>    8.4683   -0.0000 </r>
       <r>    8.6304   -0.0000 </r>
       <r>    8.6849   -0.0000 </r>
       <r>    8.7481   -0.0000 </r>
       <r>    8.8155   -0.0000 </r>
       <r>    8.8825   -0.0000 </r>
       <r>    8.9470   -0.0000 </r>
       <r>    8.9801   -0.0000 </r>
       <r>    9.0777   -0.0000 </r>
       <r>    9.1205   -0.0000 </r>
      </set>
     </set>
    </set>
   </array>
  </eigenvalues>
  <separator name="orbital magnetization" >
   <v name="MAGDIPOLOUT">      0.00000000      0.00000000      0.00000000</v>
  </separator>
  <dos>
   <i name="efermi">      6.59745117 </i>
   <total>
    <array>
     <dimension dim="1">gridpoints</dimension>
     <dimension dim="2">spin</dimension>
     <field>energy</field>
     <field>total</field>
     <field>integrated</field>
     <set>
      <set comment="spin 1">
       <r>   -50.4445     0.0000     0.0000 </r>
       <r>   -50.2361     0.0000     0.0000 </r>
       <r>   -50.0278     0.0000     0.0000 </r>
       <r>   -49.8194     0.0000     0.0000 </r>
       <r>   -49.6110     0.0000     0.0000 </r>
       <r>   -49.4026    -0.0000    -0.0000 </r>
       <r>   -49.1942    -0.0000    -0.0000 </r>
       <r>   -48.9858    -0.0000    -0.0000 </r>
       <r>   -48.7775    -0.0000    -0.0000 </r>
       <r>   -48.5691    -0.0000    -0.0000 </r>
       <r>   -48.3607    -0.0000    -0.0000 </r>
       <r>   -48.1523    -0.0034    -0.0007 </r>
       <r>   -47.9439    -0.1842    -0.0391 </r>
       <r>   -47.7355     0.2227     0.0073 </r>
       <r>   -47.5272     8.8797     1.8577 </r>
       <r>   -47.3188    22.4942     6.5451 </r>
       <r>   -47.1104    16.1077     9.9017 </r>
       <r>   -46.9020     0.8076    10.0700 </r>
       <r>   -46.6936    -0.3275    10.0017 </r>
       <r>   -46.4852    -0.0083    10.0000 </r>
       <r>   -46.2769    -0.0000    10.0000 </r>
       <r>   -46.0685    -0.0000    10.0000 </r>
       <r>   -45.8601    -0.0000    10.0000 </r>
       <r>   -45.6517     0.0000    10.0000 </r>
       <r>   -45.4433     0.0000    10.0000 </r>
       <r>   -45.2349     0.0000    10.0000 </r>
       <r>   -45.0266     0.0000    10.0000 </r>
       <r>   -44.8182     0.0000    10.0000 </r>
       <r>   -44.6098     0.0000    10.0000 </r>
       <r>   -44.4014     0.0000    10.0000 </r>
       <r>   -44.1930     0.0000    10.0000 </r>
       <r>   -43.9846     0.0000    10.0000 </r>
       <r>   -43.7763     0.0000    10.0000 </r>
       <r>   -43.5679     0.0000    10.0000 </r>
       <r>   -43.3595     0.0000    10.0000 </r>
       <r>   -43.1511     0.0000    10.0000 </r>
       <r>   -42.9427     0.0000    10.0000 </r>
       <r>   -42.7343     0.0000    10.0000 </r>
       <r>   -42.5260     0.0000    10.0000 </r>
       <r>   -42.3176     0.0000    10.0000 </r>
       <r>   -42.1092     0.0000    10.0000 </r>
       <r>   -41.9008     0.0000    10.0000 </r>
       <r>   -41.6924     0.0000    10.0000 </r>
       <r>   -41.4840     0.0000    10.0000 </r>
       <r>   -41.2757     0.0000    10.0000 </r>
       <r>   -41.0673     0.0000    10.0000 </r>
       <r>   -40.8589     0.0000    10.0000 </r>
       <r>   -40.6505     0.0000    10.0000 </r>
       <r>   -40.4421     0.0000    10.0000 </r>
       <r>   -40.2337     0.0000    10.0000 </r>
       <r>   -40.0254     0.0000    10.0000 </r>
       <r>   -39.8170     0.0000    10.0000 </r>
       <r>   -39.6086     0.0000    10.0000 </r>
       <r>   -39.4002     0.0000    10.0000 </r>
       <r>   -39.1918     0.0000    10.0000 </r>
       <r>   -38.9834     0.0000    10.0000 </r>
       <r>   -38.7751     0.0000    10.0000 </r>
       <r>   -38.5667     0.0000    10.0000 </r>
       <r>   -38.3583     0.0000    10.0000 </r>
       <r>   -38.1499     0.0000    10.0000 </r>
       <r>   -37.9415     0.0000    10.0000 </r>
       <r>   -37.7331     0.0000    10.0000 </r>
       <r>   -37.5248     0.0000    10.0000 </r>
       <r>   -37.3164     0.0000    10.0000 </r>
       <r>   -37.1080     0.0000    10.0000 </r>
       <r>   -36.8996     0.0000    10.0000 </r>
       <r>   -36.6912     0.0000    10.0000 </r>
       <r>   -36.4828     0.0000    10.0000 </r>
       <r>   -36.2745     0.0000    10.0000 </r>
       <r>   -36.0661     0.0000    10.0000 </r>
       <r>   -35.8577     0.0000    10.0000 </r>
       <r>   -35.6493     0.0000    10.0000 </r>
       <r>   -35.4409     0.0000    10.0000 </r>
       <r>   -35.2325     0.0000    10.0000 </r>
       <r>   -35.0242     0.0000    10.0000 </r>
       <r>   -34.8158     0.0000    10.0000 </r>
       <r>   -34.6074     0.0000    10.0000 </r>
       <r>   -34.3990     0.0000    10.0000 </r>
       <r>   -34.1906     0.0000    10.0000 </r>
       <r>   -33.9822     0.0000    10.0000 </r>
       <r>   -33.7739     0.0000    10.0000 </r>
       <r>   -33.5655     0.0000    10.0000 </r>
       <r>   -33.3571     0.0000    10.0000 </r>
       <r>   -33.1487     0.0000    10.0000 </r>
       <r>   -32.9403     0.0000    10.0000 </r>
       <r>   -32.7319     0.0000    10.0000 </r>
       <r>   -32.5236     0.0000    10.0000 </r>
       <r>   -32.3152     0.0000    10.0000 </r>
       <r>   -32.1068     0.0000    10.0000 </r>
       <r>   -31.8984     0.0000    10.0000 </r>
       <r>   -31.6900     0.0000    10.0000 </r>
       <r>   -31.4816     0.0000    10.0000 </r>
       <r>   -31.2733     0.0000    10.0000 </r>
       <r>   -31.0649     0.0000    10.0000 </r>
       <r>   -30.8565     0.0000    10.0000 </r>
       <r>   -30.6481     0.0000    10.0000 </r>
       <r>   -30.4397     0.0000    10.0000 </r>
       <r>   -30.2313     0.0000    10.0000 </r>
       <r>   -30.0230     0.0000    10.0000 </r>
       <r>   -29.8146     0.0000    10.0000 </r>
       <r>   -29.6062     0.0000    10.0000 </r>
       <r>   -29.3978     0.0000    10.0000 </r>
       <r>   -29.1894     0.0000    10.0000 </r>
       <r>   -28.9810     0.0000    10.0000 </r>
       <r>   -28.7727     0.0000    10.0000 </r>
       <r>   -28.5643     0.0000    10.0000 </r>
       <r>   -28.3559     0.0000    10.0000 </r>
       <r>   -28.1475     0.0000    10.0000 </r>
       <r>   -27.9391     0.0000    10.0000 </r>
       <r>   -27.7307     0.0000    10.0000 </r>
       <r>   -27.5224     0.0000    10.0000 </r>
       <r>   -27.3140     0.0000    10.0000 </r>
       <r>   -27.1056     0.0000    10.0000 </r>
       <r>   -26.8972     0.0000    10.0000 </r>
       <r>   -26.6888     0.0000    10.0000 </r>
       <r>   -26.4804     0.0000    10.0000 </r>
       <r>   -26.2721     0.0000    10.0000 </r>
       <r>   -26.0637     0.0000    10.0000 </r>
       <r>   -25.8553    -0.0000    10.0000 </r>
       <r>   -25.6469    -0.0000    10.0000 </r>
       <r>   -25.4385    -0.0000    10.0000 </r>
       <r>   -25.2301    -0.0000    10.0000 </r>
       <r>   -25.0218    -0.0000    10.0000 </r>
       <r>   -24.8134    -0.0001    10.0000 </r>
       <r>   -24.6050    -0.0189     9.9960 </r>
       <r>   -24.3966    -0.3915     9.9145 </r>
       <r>   -24.1882     2.7757    10.4929 </r>
       <r>   -23.9798     9.9869    12.5740 </r>
       <r>   -23.7715    18.6950    16.4697 </r>
       <r>   -23.5631    41.8188    25.1840 </r>
       <r>   -23.3547    40.1551    33.5517 </r>
       <r>   -23.1463    19.1731    37.5470 </r>
       <r>   -22.9379     9.3141    39.4879 </r>
       <r>   -22.7295     2.6525    40.0407 </r>
       <r>   -22.5212    -0.1535    40.0087 </r>
       <r>   -22.3128    -0.0411    40.0001 </r>
       <r>   -22.1044    -0.0006    40.0000 </r>
       <r>   -21.8960    -0.0000    40.0000 </r>
       <r>   -21.6876    -0.0000    40.0000 </r>
       <r>   -21.4792    -0.0000    40.0000 </r>
       <r>   -21.2709     0.0000    40.0000 </r>
       <r>   -21.0625     0.0000    40.0000 </r>
       <r>   -20.8541     0.0000    40.0000 </r>
       <r>   -20.6457     0.0000    40.0000 </r>
       <r>   -20.4373     0.0000    40.0000 </r>
       <r>   -20.2289     0.0000    40.0000 </r>
       <r>   -20.0206     0.0000    40.0000 </r>
       <r>   -19.8122     0.0000    40.0000 </r>
       <r>   -19.6038     0.0000    40.0000 </r>
       <r>   -19.3954     0.0000    40.0000 </r>
       <r>   -19.1870     0.0000    40.0000 </r>
       <r>   -18.9786     0.0000    40.0000 </r>
       <r>   -18.7703     0.0000    40.0000 </r>
       <r>   -18.5619     0.0000    40.0000 </r>
       <r>   -18.3535     0.0000    40.0000 </r>
       <r>   -18.1451     0.0000    40.0000 </r>
       <r>   -17.9367     0.0000    40.0000 </r>
       <r>   -17.7283     0.0000    40.0000 </r>
       <r>   -17.5200     0.0000    40.0000 </r>
       <r>   -17.3116     0.0000    40.0000 </r>
       <r>   -17.1032     0.0000    40.0000 </r>
       <r>   -16.8948     0.0000    40.0000 </r>
       <r>   -16.6864     0.0000    40.0000 </r>
       <r>   -16.4780     0.0000    40.0000 </r>
       <r>   -16.2697     0.0000    40.0000 </r>
       <r>   -16.0613     0.0000    40.0000 </r>
       <r>   -15.8529     0.0000    40.0000 </r>
       <r>   -15.6445     0.0000    40.0000 </r>
       <r>   -15.4361     0.0000    40.0000 </r>
       <r>   -15.2277     0.0000    40.0000 </r>
       <r>   -15.0194     0.0000    40.0000 </r>
       <r>   -14.8110     0.0000    40.0000 </r>
       <r>   -14.6026     0.0000    40.0000 </r>
       <r>   -14.3942     0.0000    40.0000 </r>
       <r>   -14.1858     0.0000    40.0000 </r>
       <r>   -13.9774     0.0000    40.0000 </r>
       <r>   -13.7691     0.0000    40.0000 </r>
       <r>   -13.5607     0.0000    40.0000 </r>
       <r>   -13.3523     0.0000    40.0000 </r>
       <r>   -13.1439     0.0000    40.0000 </r>
       <r>   -12.9355     0.0000    40.0000 </r>
       <r>   -12.7271     0.0000    40.0000 </r>
       <r>   -12.5188     0.0000    40.0000 </r>
       <r>   -12.3104     0.0000    40.0000 </r>
       <r>   -12.1020     0.0000    40.0000 </r>
       <r>   -11.8936     0.0000    40.0000 </r>
       <r>   -11.6852     0.0000    40.0000 </r>
       <r>   -11.4768     0.0000    40.0000 </r>
       <r>   -11.2685     0.0000    40.0000 </r>
       <r>   -11.0601     0.0000    40.0000 </r>
       <r>   -10.8517     0.0000    40.0000 </r>
       <r>   -10.6433     0.0000    40.0000 </r>
       <r>   -10.4349     0.0000    40.0000 </r>
       <r>   -10.2265     0.0000    40.0000 </r>
       <r>   -10.0182     0.0000    40.0000 </r>
       <r>    -9.8098     0.0000    40.0000 </r>
       <r>    -9.6014     0.0000    40.0000 </r>
       <r>    -9.3930     0.0000    40.0000 </r>
       <r>    -9.1846     0.0000    40.0000 </r>
       <r>    -8.9762     0.0000    40.0000 </r>
       <r>    -8.7679     0.0000    40.0000 </r>
       <r>    -8.5595     0.0000    40.0000 </r>
       <r>    -8.3511     0.0000    40.0000 </r>
       <r>    -8.1427     0.0000    40.0000 </r>
       <r>    -7.9343     0.0000    40.0000 </r>
       <r>    -7.7259     0.0000    40.0000 </r>
       <r>    -7.5176     0.0000    40.0000 </r>
       <r>    -7.3092     0.0000    40.0000 </r>
       <r>    -7.1008     0.0000    40.0000 </r>
       <r>    -6.8924     0.0000    40.0000 </r>
       <r>    -6.6840     0.0000    40.0000 </r>
       <r>    -6.4756     0.0000    40.0000 </r>
       <r>    -6.2673     0.0000    40.0000 </r>
       <r>    -6.0589     0.0000    40.0000 </r>
       <r>    -5.8505     0.0000    40.0000 </r>
       <r>    -5.6421     0.0000    40.0000 </r>
       <r>    -5.4337     0.0000    40.0000 </r>
       <r>    -5.2253     0.0000    40.0000 </r>
       <r>    -5.0170     0.0000    40.0000 </r>
       <r>    -4.8086     0.0000    40.0000 </r>
       <r>    -4.6002     0.0000    40.0000 </r>
       <r>    -4.3918     0.0000    40.0000 </r>
       <r>    -4.1834     0.0000    40.0000 </r>
       <r>    -3.9750     0.0000    40.0000 </r>
       <r>    -3.7667     0.0000    40.0000 </r>
       <r>    -3.5583     0.0000    40.0000 </r>
       <r>    -3.3499     0.0000    40.0000 </r>
       <r>    -3.1415     0.0000    40.0000 </r>
       <r>    -2.9331     0.0000    40.0000 </r>
       <r>    -2.7247     0.0000    40.0000 </r>
       <r>    -2.5164    -0.0000    40.0000 </r>
       <r>    -2.3080    -0.0000    40.0000 </r>
       <r>    -2.0996    -0.0000    40.0000 </r>
       <r>    -1.8912    -0.0000    40.0000 </r>
       <r>    -1.6828    -0.0000    40.0000 </r>
       <r>    -1.4745    -0.0000    40.0000 </r>
       <r>    -1.2661    -0.0003    39.9999 </r>
       <r>    -1.0577    -0.0083    39.9982 </r>
       <r>    -0.8493     0.0168    40.0017 </r>
       <r>    -0.6409     0.3871    40.0824 </r>
       <r>    -0.4325     1.0684    40.3050 </r>
       <r>    -0.2242     1.6634    40.6516 </r>
       <r>    -0.0158     1.7230    41.0107 </r>
       <r>     0.1926     1.3506    41.2921 </r>
       <r>     0.4010     2.6545    41.8453 </r>
       <r>     0.6094     3.3711    42.5478 </r>
       <r>     0.8178     3.0222    43.1775 </r>
       <r>     1.0261     2.5773    43.7146 </r>
       <r>     1.2345     4.5328    44.6591 </r>
       <r>     1.4429     4.1396    45.5218 </r>
       <r>     1.6513     4.2841    46.4145 </r>
       <r>     1.8597     6.7771    47.8267 </r>
       <r>     2.0681     9.7738    49.8634 </r>
       <r>     2.2764    13.8464    52.7488 </r>
       <r>     2.4848    18.3196    56.5663 </r>
       <r>     2.6932    22.1692    61.1860 </r>
       <r>     2.9016    25.1972    66.4367 </r>
       <r>     3.1100    27.6205    72.1923 </r>
       <r>     3.3184    30.4238    78.5321 </r>
       <r>     3.5267    29.3598    84.6502 </r>
       <r>     3.7351    29.4152    90.7799 </r>
       <r>     3.9435    28.8329    96.7882 </r>
       <r>     4.1519    25.5108   102.1042 </r>
       <r>     4.3603    25.2776   107.3716 </r>
       <r>     4.5687    33.0083   114.2500 </r>
       <r>     4.7770    40.2095   122.6290 </r>
       <r>     4.9854    40.9586   131.1641 </r>
       <r>     5.1938    38.4823   139.1831 </r>
       <r>     5.4022    36.5993   146.8098 </r>
       <r>     5.6106    36.2346   154.3605 </r>
       <r>     5.8190    37.6323   162.2025 </r>
       <r>     6.0273    39.5052   170.4347 </r>
       <r>     6.2357    39.1683   178.5967 </r>
       <r>     6.4441    36.1743   186.1348 </r>
       <r>     6.6525    31.3811   192.6741 </r>
       <r>     6.8609    27.8692   198.4816 </r>
       <r>     7.0693    20.7849   202.8128 </r>
       <r>     7.2776    17.5664   206.4734 </r>
       <r>     7.4860    16.5762   209.9276 </r>
       <r>     7.6944    16.4177   213.3487 </r>
       <r>     7.9028    17.8437   217.0671 </r>
       <r>     8.1112    19.4532   221.1208 </r>
       <r>     8.3196    21.7074   225.6442 </r>
       <r>     8.5279    23.5248   230.5464 </r>
       <r>     8.7363    21.7054   235.0695 </r>
       <r>     8.9447    15.2621   238.2498 </r>
       <r>     9.1531     7.4527   239.8029 </r>
       <r>     9.3615     1.1102   240.0342 </r>
       <r>     9.5699    -0.1479   240.0034 </r>
       <r>     9.7782    -0.0162   240.0000 </r>
       <r>     9.9866    -0.0002   240.0000 </r>
       <r>    10.1950    -0.0000   240.0000 </r>
       <r>    10.4034    -0.0000   240.0000 </r>
       <r>    10.6118    -0.0000   240.0000 </r>
       <r>    10.8202     0.0000   240.0000 </r>
       <r>    11.0285     0.0000   240.0000 </r>
       <r>    11.2369     0.0000   240.0000 </r>
       <r>    11.4453     0.0000   240.0000 </r>
       <r>    11.6537     0.0000   240.0000 </r>
       <r>    11.8621     0.0000   240.0000 </r>
       <r>    12.0705     0.0000   240.0000 </r>
      </set>
     </set>
    </array>
   </total>
  </dos>
 </calculation>
 <structure name="finalpos" >
  <crystal>
   <varray name="basis" >
    <v>      -3.19741474      -3.16425109      -3.22055899 </v>
    <v>       1.47964492       1.58249270      -7.93267546 </v>
    <v>       7.89821098      -7.93414889      -1.49104409 </v>
   </varray>
   <i name="volume">    478.12027046 </i>
   <varray name="rec_basis" >
    <v>      -0.13657357      -0.12642787      -0.05069558 </v>
    <v>       0.04357556       0.06317268      -0.10533058 </v>
    <v>       0.06315877      -0.06301623      -0.00079042 </v>
   </varray>
  </crystal>
  <varray name="positions" >
   <v>       0.93012142       0.95690125       0.39721690 </v>
   <v>       0.49998185       0.00376946       0.00071455 </v>
   <v>      -0.00426593       0.00556857       0.00508257 </v>
   <v>       0.09738411       0.20436939       0.79770490 </v>
   <v>       0.03898082       0.06904477       0.59581122 </v>
   <v>       0.90119759       0.80044751       0.20589174 </v>
   <v>       0.81051673       0.58918568       0.39783057 </v>
   <v>       0.73241874       0.46537148       0.20378297 </v>
   <v>       0.66559033       0.34016911      -0.00041493 </v>
   <v>       0.36580855       0.72493139       0.59618665 </v>
   <v>       0.14212669       0.27158687       0.39968749 </v>
   <v>       0.83442151       0.66651944       0.00152664 </v>
   <v>       0.92582127       0.87127241       0.79705376 </v>
   <v>       0.56807128       0.14179216       0.21173922 </v>
   <v>       0.40608612       0.79323465       0.20042705 </v>
   <v>       0.43652108       0.85674498       0.79548726 </v>
   <v>       0.31662464       0.58378087       0.40099762 </v>
   <v>       0.85860805       0.73284120       0.59345503 </v>
   <v>       0.45514748       0.91867690       0.40736722 </v>
   <v>       0.17693864       0.33293472       0.00459322 </v>
   <v>       0.27205159       0.53230141       0.79529576 </v>
   <v>       0.19843992       0.39039324       0.59537408 </v>
   <v>       0.06849494       0.14672277       0.21003426 </v>
   <v>       0.77022800       0.52717149       0.79792435 </v>
   <v>       0.69492809       0.40311849       0.59736658 </v>
   <v>       0.59792344       0.20197219       0.79616170 </v>
   <v>       0.54136213       0.07009776       0.59619003 </v>
   <v>       0.33532303       0.66078118       0.00059217 </v>
   <v>       0.22981455       0.47163200       0.19891942 </v>
  </varray>
 </structure>
</modeling>
