SQS with 1 vacancy for VFE and VRV      
           1
    -3.190000   -3.190000   -3.190000
     1.595000    1.595000   -7.975000
     7.975000   -7.975000   -1.595000
   Nb   Mo   Ta   Ti   W 
   5   6   6   6   6
Direct configuration=     1
   0.96666667  0.93333333  0.40000000
   0.50000000  0.00000000  0.00000000
   0.00000000  0.00000000  0.00000000
   0.10000000  0.20000000  0.80000000
   0.03333333  0.06666667  0.60000000
   0.90000000  0.80000000  0.20000000
   0.80000000  0.60000000  0.40000000
   0.73333333  0.46666667  0.20000000
   0.66666667  0.33333333  0.00000000
   0.36666667  0.73333333  0.60000000
   0.13333333  0.26666667  0.40000000
   0.83333333  0.66666667  0.00000000
   0.93333333  0.86666667  0.80000000
   0.56666667  0.13333333  0.20000000
   0.40000000  0.80000000  0.20000000
   0.43333333  0.86666667  0.80000000
   0.30000000  0.60000000  0.40000000
   0.86666667  0.73333333  0.60000000
   0.46666667  0.93333333  0.40000000
   0.16666667  0.33333333  0.00000000
   0.26666667  0.53333333  0.80000000
   0.20000000  0.40000000  0.60000000
   0.06666667  0.13333333  0.20000000
   0.76666667  0.53333333  0.80000000
   0.70000000  0.40000000  0.60000000
   0.60000000  0.20000000  0.80000000
   0.53333333  0.06666667  0.60000000
   0.33333333  0.66666667  0.00000000
   0.23333333  0.46666667  0.20000000
SQS with 1 vacancy for VFE and VRV      
           1
    -3.145220   -3.134377   -3.149610
     1.524073    1.580671   -7.838971
     7.815157   -7.845575   -1.517280
   Nb   Mo   Ta   Ti   W 
   5   6   6   6   6
Direct configuration=     2
   0.95893494  0.94030982  0.39822189
   0.49967574  0.00234995 -0.00095911
  -0.00232037  0.00156636  0.00181817
   0.09738559  0.20440467  0.79861530
   0.03586210  0.06803134  0.59749497
   0.90130912  0.79890308  0.20277296
   0.80452926  0.59480867  0.39890535
   0.73219346  0.46582844  0.20124854
   0.66423107  0.33714320 -0.00041420
   0.36825849  0.73048275  0.59934051
   0.13248987  0.27013025  0.39922388
   0.83441518  0.66406261  0.00149126
   0.92946947  0.86905483  0.79930876
   0.56584787  0.13678046  0.20167812
   0.40355637  0.79550153  0.19942182
   0.43766860  0.86065528  0.79814300
   0.30625810  0.59428022  0.40136176
   0.86344515  0.73351367  0.59855843
   0.46363965  0.93020473  0.40347150
   0.16945804  0.33344290  0.00184117
   0.26928210  0.53343344  0.79899404
   0.19983269  0.39612015  0.59902168
   0.06698392  0.13761319  0.20191963
   0.76730518  0.52921162  0.80019435
   0.69780328  0.40413786  0.60053866
   0.59808010  0.20184991  0.79788729
   0.53612466  0.07013478  0.59913587
   0.33464316  0.66130178  0.00095962
   0.23030388  0.46807581  0.19980480
SQS with 1 vacancy for VFE and VRV      
           1
    -3.161361   -3.154427   -3.164169
     1.549639    1.585836   -7.888003
     7.872772   -7.892227   -1.545294
   Nb   Mo   Ta   Ti   W 
   5   6   6   6   6
Direct configuration=     3
   0.96177509  0.93774994  0.39886737
   0.49979769  0.00148955 -0.00061003
  -0.00146759  0.00098582  0.00114920
   0.09834884  0.20279008  0.79911847
   0.03493740  0.06753771  0.59841217
   0.90082970  0.79929938  0.20175608
   0.80286256  0.59671906  0.39931296
   0.73260998  0.46613255  0.20079157
   0.66512844  0.33574461 -0.00026657
   0.36767092  0.73153152  0.59958600
   0.13280375  0.26886036  0.39950443
   0.83401582  0.66501529  0.00094697
   0.93088714  0.86817823  0.79956033
   0.56615402  0.13551048  0.20105769
   0.40224715  0.79715586  0.19963915
   0.43607116  0.86286853  0.79883162
   0.30395911  0.59637919  0.40086784
   0.86462375  0.73344971  0.59908823
   0.46474439  0.93134327  0.40220196
   0.16843756  0.33339925  0.00116439
   0.26832445  0.53340031  0.79936256
   0.19988714  0.39754682  0.59938602
   0.06687575  0.13603739  0.20120914
   0.76706493  0.53072448  0.80012830
   0.69861426  0.40261658  0.60033597
   0.59878464  0.20117529  0.79866093
   0.53510815  0.06886498  0.59944781
   0.33415561  0.66326938  0.00061411
   0.23141484  0.46755772  0.19987535
SQS with 1 vacancy for VFE and VRV      
           1
    -3.182502   -3.163099   -3.189517
     1.511421    1.601521   -7.913946
     7.875600   -7.920230   -1.501613
   Nb   Mo   Ta   Ti   W 
   5   6   6   6   6
Direct configuration=     4
   0.95244634  0.94584803  0.39699650
   0.49923836  0.00359949 -0.00145232
  -0.00359198  0.00276064  0.00291186
   0.09626522  0.20653282  0.79777100
   0.03736901  0.06911993  0.59590518
   0.90187509  0.79849586  0.20459976
   0.80738211  0.59160259  0.39842358
   0.73156765  0.46454220  0.20255117
   0.66282294  0.33922198 -0.00055613
   0.36903951  0.72862798  0.59867884
   0.13240592  0.27213521  0.39876986
   0.83531778  0.66283725  0.00227657
   0.92785375  0.87036079  0.79870627
   0.56547390  0.13906521  0.20376791
   0.40554474  0.79325457  0.19945959
   0.43922162  0.85744013  0.79709949
   0.31099732  0.58961843  0.40251772
   0.86169955  0.73352579  0.59727938
   0.46179150  0.92788304  0.40562124
   0.17150240  0.33327494  0.00304390
   0.27061963  0.53329350  0.79816703
   0.19976828  0.39388918  0.59809937
   0.06690140  0.14064010  0.20341557
   0.76819120  0.52696158  0.80012754
   0.69615165  0.40635022  0.60019686
   0.59659937  0.20304081  0.79660914
   0.53828340  0.07250580  0.59786441
   0.33526761  0.65822390  0.00135620
   0.22866139  0.46868134  0.19979253
SQS with 1 vacancy for VFE and VRV      
           1
    -3.191804   -3.166915   -3.200670
     1.494605    1.608423   -7.925362
     7.876844   -7.932551   -1.482393
   Nb   Mo   Ta   Ti   W 
   5   6   6   6   6
Direct configuration=     5
   0.94834772  0.94940374  0.39618379
   0.49898963  0.00452395 -0.00181926
  -0.00452606  0.00354594  0.00368789
   0.09534624  0.20817366  0.79718412
   0.03843106  0.06980649  0.59480738
   0.90233315  0.79815029  0.20584776
   0.80937090  0.58935110  0.39802689
   0.73111397  0.46384927  0.20332119
   0.66180696  0.34074932 -0.00067888
   0.36964474  0.72734981  0.59827658
   0.13222547  0.27357140  0.39845202
   0.83589149  0.66188384  0.00285768
   0.92652203  0.87131843  0.79833342
   0.56516798  0.14063390  0.20496323
   0.40699598  0.79153927  0.19937603
   0.44061216  0.85505009  0.79633176
   0.31409081  0.58665056  0.40323459
   0.86042025  0.73355579  0.59648410
   0.46050473  0.92637462  0.40711670
   0.17284333  0.33322388  0.00387017
   0.27162486  0.53324209  0.79764263
   0.19972415  0.39227964  0.59752880
   0.06690246  0.14266719  0.20439144
   0.76869174  0.52530869  0.80012196
   0.69506633  0.40799060  0.60014050
   0.59563996  0.20385549  0.79571009
   0.53966640  0.07409844  0.59717556
   0.33576421  0.65600987  0.00167494
   0.22745402  0.46917597  0.19975689
SQS with 1 vacancy for VFE and VRV      
           1
    -3.203324   -3.173559   -3.211423
     1.499486    1.604083   -7.943841
     7.905380   -7.944530   -1.492095
   Nb   Mo   Ta   Ti   W 
   5   6   6   6   6
Direct configuration=     6
   0.94546627  0.95041723  0.39605011
   0.49925008  0.00337852 -0.00145486
  -0.00421627  0.00336949  0.00352942
   0.09658101  0.20618003  0.79728615
   0.03862070  0.07032431  0.59527447
   0.90201704  0.79875778  0.20577853
   0.80937530  0.58992268  0.39845514
   0.73088376  0.46360825  0.20364966
   0.66242529  0.33966005 -0.00049211
   0.36867692  0.72737950  0.59778076
   0.13363244  0.27318024  0.39840423
   0.83488048  0.66348465  0.00260804
   0.92728125  0.87128411  0.79824984
   0.56548004  0.14054025  0.20651098
   0.40658294  0.79191121  0.19987381
   0.43897556  0.85613619  0.79646884
   0.31507156  0.58577540  0.40303111
   0.86063491  0.73389086  0.59577936
   0.46022786  0.92508059  0.40696465
   0.17348978  0.33281977  0.00391465
   0.27088320  0.53307861  0.79739406
   0.19934332  0.39260186  0.59694382
   0.06709902  0.14326704  0.20502188
   0.76916143  0.52687719  0.79972159
   0.69484607  0.40694575  0.59936096
   0.59610865  0.20322512  0.79563936
   0.54064368  0.07333666  0.59674056
   0.33514202  0.65763117  0.00149355
   0.22810237  0.46926884  0.20002144
SQS with 1 vacancy for VFE and VRV      
           1
    -3.206625   -3.175464   -3.214504
     1.500885    1.602839   -7.949137
     7.913558   -7.947963   -1.494875
   Nb   Mo   Ta   Ti   W 
   5   6   6   6   6
Direct configuration=     7
   0.94464267  0.95070735  0.39601148
   0.49932497  0.00305072 -0.00135048
  -0.00412780  0.00331907  0.00348418
   0.09693433  0.20560967  0.79731576
   0.03867501  0.07047221  0.59540791
   0.90192654  0.79893158  0.20575861
   0.80937665  0.59008598  0.39857745
   0.73081821  0.46353919  0.20374357
   0.66260232  0.33934836 -0.00043848
   0.36840012  0.72738826  0.59763895
   0.13403451  0.27306829  0.39839076
   0.83459110  0.66394270  0.00253632
   0.92749814  0.87127428  0.79822602
   0.56557006  0.14051278  0.20695342
   0.40646510  0.79201741  0.20001599
   0.43850776  0.85644689  0.79650770
   0.31535188  0.58552511  0.40297319
   0.86069578  0.73398699  0.59557789
   0.46014898  0.92471054  0.40692139
   0.17367461  0.33270412  0.00392749
   0.27067119  0.53303200  0.79732298
   0.19923412  0.39269430  0.59677652
   0.06715538  0.14343833  0.20520199
   0.76929505  0.52732598  0.79960692
   0.69478296  0.40664724  0.59913830
   0.59624268  0.20304481  0.79561928
   0.54092285  0.07311890  0.59661644
   0.33496376  0.65809502  0.00144137
   0.22828774  0.46929525  0.20009710
SQS with 1 vacancy for VFE and VRV      
           1
    -3.204708   -3.170564   -3.213167
     1.498504    1.594131   -7.938192
     7.909108   -7.933189   -1.497015
   Nb   Mo   Ta   Ti   W 
   5   6   6   6   6
Direct configuration=     8
   0.94215433  0.95164839  0.39592561
   0.49953413  0.00233890 -0.00102261
  -0.00398112  0.00326022  0.00346055
   0.09760934  0.20441722  0.79736308
   0.03891233  0.07080147  0.59565258
   0.90172592  0.79929365  0.20575188
   0.80951136  0.59035919  0.39882064
   0.73062955  0.46353630  0.20397098
   0.66305346  0.33876729 -0.00034763
   0.36774392  0.72729562  0.59727253
   0.13519621  0.27285775  0.39838125
   0.83391159  0.66500958  0.00237020
   0.92769364  0.87131239  0.79812214
   0.56589098  0.14045532  0.20817259
   0.40622661  0.79216215  0.20034753
   0.43754480  0.85711871  0.79648972
   0.31612694  0.58487991  0.40274003
   0.86072276  0.73424226  0.59503926
   0.45977133  0.92359565  0.40687086
   0.17423350  0.33245352  0.00399228
   0.27034173  0.53290518  0.79708808
   0.19893358  0.39275590  0.59634837
   0.06735797  0.14396184  0.20577364
   0.76956010  0.52819503  0.79929422
   0.69463476  0.40596938  0.59864819
   0.59670190  0.20257150  0.79555164
   0.54162364  0.07259094  0.59633119
   0.33460711  0.65911093  0.00135098
   0.22869429  0.46946714  0.20024021
SQS with 1 vacancy for VFE and VRV      
           1
    -3.202507   -3.164940   -3.211632
     1.495772    1.584134   -7.925627
     7.904000   -7.916229   -1.499472
   Nb   Mo   Ta   Ti   W 
   5   6   6   6   6
Direct configuration=     9
   0.93929409  0.95273141  0.39582597
   0.49977561  0.00151987 -0.00064541
  -0.00381255  0.00319252  0.00343345
   0.09838618  0.20304565  0.79741816
   0.03918501  0.07117979  0.59593370
   0.90149503  0.79971009  0.20574393
   0.80966620  0.59067307  0.39910006
   0.73041307  0.46353279  0.20423230
   0.66357253  0.33809882 -0.00024284
   0.36698953  0.72718968  0.59685130
   0.13653124  0.27261531  0.39837067
   0.83312953  0.66623690  0.00217866
   0.92791811  0.87135627  0.79800277
   0.56626139  0.14038780  0.20957392
   0.40595287  0.79232832  0.20072847
   0.43643764  0.85789161  0.79646854
   0.31701786  0.58413795  0.40247251
   0.86075279  0.73453642  0.59442008
   0.45933843  0.92231368  0.40681320
   0.17487602  0.33216509  0.00406698
   0.26996299  0.53275969  0.79681809
   0.19858763  0.39282730  0.59585618
   0.06759100  0.14456320  0.20643046
   0.76986338  0.52919472  0.79893449
   0.69446449  0.40519042  0.59808515
   0.59722995  0.20202712  0.79547421
   0.54242902  0.07198389  0.59600373
   0.33419617  0.66027944  0.00124656
   0.22916145  0.46966453  0.20040471
SQS with 1 vacancy for VFE and VRV      
           1
    -3.201201   -3.164635   -3.212645
     1.493598    1.582692   -7.925296
     7.901428   -7.916798   -1.499281
   Nb   Mo   Ta   Ti   W 
   5   6   6   6   6
Direct configuration=    10
   0.93814243  0.95340088  0.39590424
   0.49973300  0.00178550 -0.00041673
  -0.00394100  0.00340834  0.00365883
   0.09811624  0.20340843  0.79739751
   0.03936549  0.07103537  0.59572495
   0.90145943  0.79965065  0.20581208
   0.80986005  0.59054706  0.39900216
   0.73049889  0.46371717  0.20428192
   0.66375381  0.33833426 -0.00027980
   0.36691466  0.72704986  0.59677757
   0.13712388  0.27253484  0.39843535
   0.83324338  0.66608701  0.00219358
   0.92744406  0.87138100  0.79780580
   0.56654238  0.14045281  0.21001913
   0.40595564  0.79231226  0.20079545
   0.43676506  0.85775510  0.79622883
   0.31717169  0.58395993  0.40232843
   0.86057896  0.73453926  0.59427941
   0.45884699  0.92181163  0.40691269
   0.17512528  0.33216119  0.00413025
   0.27027013  0.53270296  0.79664749
   0.19849539  0.39257458  0.59580689
   0.06766082  0.14477758  0.20676859
   0.76978941  0.52884254  0.79884310
   0.69451383  0.40509494  0.59803968
   0.59740730  0.20202377  0.79552399
   0.54243614  0.07198511  0.59584824
   0.33428263  0.66016718  0.00124685
   0.22911070  0.46983210  0.20028352
SQS with 1 vacancy for VFE and VRV      
           1
    -3.197282   -3.163717   -3.215683
     1.487075    1.578365   -7.924303
     7.893711   -7.918504   -1.498706
   Nb   Mo   Ta   Ti   W 
   5   6   6   6   6
Direct configuration=    11
   0.93468585  0.95541041  0.39613941
   0.49960448  0.00258272  0.00026943
  -0.00432698  0.00405614  0.00433509
   0.09730579  0.20449714  0.79733564
   0.03990747  0.07060184  0.59509856
   0.90135259  0.79947235  0.20601655
   0.81044199  0.59016882  0.39870839
   0.73075609  0.46427041  0.20443079
   0.66429747  0.33904065 -0.00039070
   0.36669031  0.72663032  0.59655636
   0.13890212  0.27229309  0.39862927
   0.83358518  0.66563720  0.00223833
   0.92602190  0.87145538  0.79721494
   0.56738487  0.14064796  0.21135488
   0.40596388  0.79226411  0.20099639
   0.43774795  0.85734517  0.79550950
   0.31763367  0.58342559  0.40189610
   0.86005755  0.73454780  0.59385739
   0.45737298  0.92030546  0.40721123
   0.17587309  0.33214940  0.00432005
   0.27119201  0.53253248  0.79613556
   0.19821906  0.39181625  0.59565898
   0.06786960  0.14542099  0.20778312
   0.76956805  0.52778575  0.79856884
   0.69466205  0.40480839  0.59790323
   0.59793939  0.20201367  0.79567334
   0.54245769  0.07198867  0.59538171
   0.33454222  0.65983030  0.00124767
   0.22895833  0.47033486  0.19991997
SQS with 1 vacancy for VFE and VRV      
           1
    -3.196023   -3.163423   -3.216660
     1.484978    1.576975   -7.923984
     7.891231   -7.919052   -1.498522
   Nb   Mo   Ta   Ti   W 
   5   6   6   6   6
Direct configuration=    12
   0.93357350  0.95605727  0.39621532
   0.49956252  0.00283921  0.00049006
  -0.00445164  0.00426463  0.00455255
   0.09704476  0.20484738  0.79731585
   0.04008218  0.07046223  0.59489714
   0.90131823  0.79941507  0.20608228
   0.81062939  0.59004704  0.39861389
   0.73083848  0.46444829  0.20447865
   0.66447200  0.33926769 -0.00042636
   0.36661846  0.72649541  0.59648523
   0.13947389  0.27221507  0.39869149
   0.83369525  0.66549250  0.00225267
   0.92556485  0.87147945  0.79702508
   0.56765513  0.14071078  0.21178425
   0.40596647  0.79224866  0.20106099
   0.43806444  0.85721306  0.79527817
   0.31778262  0.58325361  0.40175706
   0.85989007  0.73455057  0.59372175
   0.45689961  0.91982142  0.40730723
   0.17611345  0.33214551  0.00438102
   0.27148869  0.53247742  0.79597092
   0.19813061  0.39157242  0.59561141
   0.06793603  0.14562802  0.20810929
   0.76949747  0.52744592  0.79848064
   0.69470989  0.40471620  0.59785935
   0.59811041  0.20201035  0.79572131
   0.54246480  0.07198974  0.59523172
   0.33462583  0.65972192  0.00124790
   0.22890926  0.47049650  0.19980312
SQS with 1 vacancy for VFE and VRV      
           1
    -3.200563   -3.169600   -3.223625
     1.485546    1.580450   -7.940000
     7.903102   -7.936991   -1.499989
   Nb   Mo   Ta   Ti   W 
   5   6   6   6   6
Direct configuration=    13
   0.93185103  0.95697098  0.39640325
   0.49960121  0.00319476  0.00075053
  -0.00458879  0.00459375  0.00485327
   0.09717017  0.20502693  0.79726095
   0.03999453  0.07028005  0.59479633
   0.90121077  0.79944642  0.20621832
   0.81084271  0.58986881  0.39842300
   0.73129160  0.46467076  0.20446201
   0.66466101  0.33961221 -0.00030947
   0.36661833  0.72615982  0.59633771
   0.14050980  0.27198326  0.39884144
   0.83384811  0.66543187  0.00212713
   0.92547922  0.87150561  0.79686201
   0.56791175  0.14083873  0.21231190
   0.40580881  0.79246316  0.20104160
   0.43777892  0.85706819  0.79511731
   0.31779403  0.58305536  0.40158750
   0.85951148  0.73436253  0.59349080
   0.45616696  0.91913903  0.40738203
   0.17647468  0.33219493  0.00453351
   0.27190721  0.53237250  0.79565950
   0.19820235  0.39122209  0.59559021
   0.06821305  0.14588383  0.20870248
   0.76947598  0.52722638  0.79829718
   0.69477370  0.40438071  0.59774737
   0.59807368  0.20205220  0.79578998
   0.54235202  0.07189452  0.59505245
   0.33471834  0.65971334  0.00112719
   0.22901398  0.47072056  0.19954250
SQS with 1 vacancy for VFE and VRV      
           1
    -3.198822   -3.167231   -3.220954
     1.485328    1.579117   -7.933859
     7.898550   -7.930113   -1.499426
   Nb   Mo   Ta   Ti   W 
   5   6   6   6   6
Direct configuration=    14
   0.93251047  0.95662118  0.39633119
   0.49958652  0.00305865  0.00065082
  -0.00453617  0.00446774  0.00473816
   0.09712217  0.20495823  0.79728195
   0.04002803  0.07034978  0.59483492
   0.90125194  0.79943439  0.20616625
   0.81076099  0.58993706  0.39849607
   0.73111819  0.46458565  0.20446838
   0.66458874  0.33948036 -0.00035422
   0.36661830  0.72628827  0.59639419
   0.14011332  0.27207200  0.39878411
   0.83378956  0.66545510  0.00217519
   0.92551195  0.87149563  0.79692441
   0.56781369  0.14078968  0.21210997
   0.40586917  0.79238107  0.20104900
   0.43788815  0.85712365  0.79517887
   0.31778959  0.58313126  0.40165241
   0.85965630  0.73443451  0.59357919
   0.45644733  0.91940012  0.40735342
   0.17633646  0.33217601  0.00447516
   0.27174692  0.53241273  0.79577871
   0.19817485  0.39135617  0.59559835
   0.06810721  0.14578585  0.20847546
   0.76948413  0.52731042  0.79836740
   0.69474921  0.40450912  0.59779025
   0.59808776  0.20203617  0.79576370
   0.54239513  0.07193099  0.59512106
   0.33468290  0.65971665  0.00117339
   0.22897385  0.47063487  0.19964223
SQS with 1 vacancy for VFE and VRV      
           1
    -3.198396   -3.167175   -3.220184
     1.485371    1.580628   -7.933713
     7.896660   -7.929953   -1.498253
   Nb   Mo   Ta   Ti   W 
   5   6   6   6   6
Direct configuration=    15
   0.93197164  0.95675349  0.39644535
   0.49972588  0.00306208  0.00064532
  -0.00453092  0.00454422  0.00477577
   0.09750450  0.20469962  0.79725074
   0.03974601  0.07033736  0.59500066
   0.90118592  0.79951760  0.20622721
   0.81077277  0.58985215  0.39841420
   0.73142162  0.46470247  0.20437782
   0.66459604  0.33959294 -0.00021889
   0.36669035  0.72605622  0.59631503
   0.14050889  0.27198358  0.39888773
   0.83374684  0.66568259  0.00199499
   0.92581235  0.87153508  0.79696141
   0.56776075  0.14088184  0.21213355
   0.40579095  0.79251224  0.20095831
   0.43732576  0.85710352  0.79527085
   0.31765586  0.58313433  0.40161140
   0.85943241  0.73423024  0.59349063
   0.45624327  0.91920638  0.40733767
   0.17644288  0.33227250  0.00454936
   0.27182273  0.53238565  0.79564970
   0.19834657  0.39125966  0.59560256
   0.06832596  0.14584912  0.20876739
   0.76954380  0.52748940  0.79825231
   0.69475979  0.40429260  0.59774332
   0.59794604  0.20204444  0.79575567
   0.54228864  0.07175477  0.59517556
   0.33468509  0.65985129  0.00107239
   0.22914429  0.47074595  0.19955201
SQS with 1 vacancy for VFE and VRV      
           1
    -3.197224   -3.167020   -3.218063
     1.485487    1.584787   -7.933311
     7.891455   -7.929514   -1.495022
   Nb   Mo   Ta   Ti   W 
   5   6   6   6   6
Direct configuration=    16
   0.93048774  0.95711776  0.39675979
   0.50010969  0.00307155  0.00063014
  -0.00451643  0.00475481  0.00487938
   0.09855729  0.20398759  0.79716467
   0.03896925  0.07030320  0.59545712
   0.90100411  0.79974671  0.20639513
   0.81080521  0.58961831  0.39818871
   0.73225735  0.46502412  0.20412842
   0.66461613  0.33990299  0.00015384
   0.36688868  0.72541723  0.59609696
   0.14159819  0.27174023  0.39917305
   0.83362938  0.66630885  0.00149877
   0.92663963  0.87164377  0.79706331
   0.56761500  0.14113560  0.21219851
   0.40557563  0.79287337  0.20070859
   0.43577694  0.85704807  0.79552418
   0.31728758  0.58314273  0.40149848
   0.85881577  0.73366771  0.59324670
   0.45568120  0.91867291  0.40729425
   0.17673596  0.33253822  0.00475371
   0.27203157  0.53231102  0.79529439
   0.19881944  0.39099397  0.59561412
   0.06892827  0.14602353  0.20957137
   0.76970829  0.52798215  0.79793540
   0.69478883  0.40369640  0.59761402
   0.59755574  0.20206719  0.79573358
   0.54199525  0.07126958  0.59532561
   0.33469123  0.66022196  0.00079426
   0.22961378  0.47105178  0.19930355
SQS with 1 vacancy for VFE and VRV      
           1
    -3.197735   -3.166091   -3.219033
     1.483859    1.583358   -7.932901
     7.893999   -7.929666   -1.494308
   Nb   Mo   Ta   Ti   W 
   5   6   6   6   6
Direct configuration=    17
   0.93051712  0.95706581  0.39686334
   0.49990890  0.00327705  0.00064124
  -0.00446161  0.00497719  0.00494907
   0.09788918  0.20431046  0.79733224
   0.03919489  0.07005518  0.59540129
   0.90101484  0.79985419  0.20623732
   0.81073106  0.58950051  0.39810355
   0.73222868  0.46508924  0.20405791
   0.66493722  0.33991838 -0.00004855
   0.36652129  0.72536334  0.59617505
   0.14165726  0.27174744  0.39929588
   0.83396818  0.66620853  0.00160025
   0.92560162  0.87154638  0.79704796
   0.56774461  0.14123478  0.21209306
   0.40568923  0.79287123  0.20067704
   0.43713602  0.85690526  0.79547488
   0.31720386  0.58326933  0.40130214
   0.85882668  0.73353618  0.59333238
   0.45553191  0.91868191  0.40731686
   0.17674386  0.33260648  0.00468031
   0.27201993  0.53229395  0.79530161
   0.19869993  0.39086047  0.59556844
   0.06874681  0.14615704  0.20965334
   0.76984273  0.52765472  0.79793053
   0.69491101  0.40364437  0.59759769
   0.59790304  0.20208147  0.79586703
   0.54165586  0.07109875  0.59551518
   0.33469823  0.66030889  0.00078023
   0.22960432  0.47121479  0.19925273
SQS with 1 vacancy for VFE and VRV      
           1
    -3.197832   -3.165915   -3.219218
     1.483550    1.583087   -7.932823
     7.894482   -7.929695   -1.494173
   Nb   Mo   Ta   Ti   W 
   5   6   6   6   6
Direct configuration=    18
   0.93052270  0.95705595  0.39688298
   0.49987079  0.00331605  0.00064335
  -0.00445122  0.00501938  0.00496229
   0.09776242  0.20437174  0.79736402
   0.03923771  0.07000811  0.59539070
   0.90101686  0.79987459  0.20620739
   0.81071700  0.58947816  0.39808739
   0.73222323  0.46510160  0.20404454
   0.66499812  0.33992129 -0.00008693
   0.36645160  0.72535313  0.59618985
   0.14166848  0.27174881  0.39931918
   0.83403247  0.66618949  0.00161950
   0.92540470  0.87152792  0.79704503
   0.56776918  0.14125360  0.21207306
   0.40571078  0.79287082  0.20067105
   0.43739387  0.85687813  0.79546555
   0.31718796  0.58329336  0.40126490
   0.85882876  0.73351122  0.59334864
   0.45550359  0.91868362  0.40732115
   0.17674534  0.33261943  0.00466639
   0.27201773  0.53229071  0.79530298
   0.19867727  0.39083514  0.59555978
   0.06871238  0.14618238  0.20966888
   0.76986825  0.52759259  0.79792960
   0.69493419  0.40363449  0.59759460
   0.59796894  0.20208417  0.79589234
   0.54159150  0.07106634  0.59555113
   0.33469955  0.66032538  0.00077757
   0.22960251  0.47124572  0.19924310
SQS with 1 vacancy for VFE and VRV      
           1
    -3.197728   -3.165499   -3.219553
     1.482574    1.582939   -7.932786
     7.895414   -7.930808   -1.493390
   Nb   Mo   Ta   Ti   W 
   5   6   6   6   6
Direct configuration=    19
   0.93042238  0.95701727  0.39696647
   0.49989857  0.00342940  0.00066114
  -0.00440488  0.00515667  0.00499235
   0.09766785  0.20437114  0.79744925
   0.03917346  0.06976728  0.59549585
   0.90106206  0.80001782  0.20612846
   0.81066692  0.58940505  0.39802318
   0.73227211  0.46516907  0.20397914
   0.66514618  0.33998326 -0.00016894
   0.36629083  0.72524769  0.59618906
   0.14178302  0.27170833  0.39941126
   0.83412973  0.66627198  0.00159628
   0.92550883  0.87146405  0.79704722
   0.56784472  0.14138824  0.21198959
   0.40580462  0.79296178  0.20061004
   0.43717568  0.85684483  0.79547098
   0.31704715  0.58341523  0.40119807
   0.85877357  0.73334372  0.59337524
   0.45541456  0.91868194  0.40733267
   0.17679367  0.33269825  0.00464809
   0.27202620  0.53229338  0.79530117
   0.19861792  0.39072467  0.59551335
   0.06865804  0.14631746  0.20976023
   0.76995818  0.52748732  0.79792829
   0.69493265  0.40350550  0.59753760
   0.59795756  0.20205617  0.79595969
   0.54153413  0.07082419  0.59571088
   0.33485543  0.66043934  0.00073121
   0.22965553  0.47134230  0.19916216
SQS with 1 vacancy for VFE and VRV      
           1
    -3.197415   -3.164251   -3.220559
     1.479645    1.582493   -7.932675
     7.898211   -7.934149   -1.491044
   Nb   Mo   Ta   Ti   W 
   5   6   6   6   6
Direct configuration=    20
   0.93012142  0.95690125  0.39721690
   0.49998185  0.00376946  0.00071455
  -0.00426593  0.00556857  0.00508257
   0.09738411  0.20436939  0.79770490
   0.03898082  0.06904477  0.59581122
   0.90119759  0.80044751  0.20589174
   0.81051673  0.58918568  0.39783057
   0.73241874  0.46537148  0.20378297
   0.66559033  0.34016911 -0.00041493
   0.36580855  0.72493139  0.59618665
   0.14212669  0.27158687  0.39968749
   0.83442151  0.66651944  0.00152664
   0.92582127  0.87127241  0.79705376
   0.56807128  0.14179216  0.21173922
   0.40608612  0.79323465  0.20042705
   0.43652108  0.85674498  0.79548726
   0.31662464  0.58378087  0.40099762
   0.85860805  0.73284120  0.59345503
   0.45514748  0.91867690  0.40736722
   0.17693864  0.33293472  0.00459322
   0.27205159  0.53230141  0.79529576
   0.19843992  0.39039324  0.59537408
   0.06849494  0.14672277  0.21003426
   0.77022800  0.52717149  0.79792435
   0.69492809  0.40311849  0.59736658
   0.59792344  0.20197219  0.79616170
   0.54136213  0.07009776  0.59619003
   0.33532303  0.66078118  0.00059217
   0.22981455  0.47163200  0.19891942
