  29  29   0   0
  0.1679057E+02  0.5525242E-09  0.8287863E-09  0.1139058E-08  0.5000000E-15
  1.000000000000000E-004
  CAR 
 SQS with 1 vacancy for VFE and VRV      
     11.98102640    -50.47398839  301      6.55246668      1.00000000
    -50.474  0.0000E+00  0.0000E+00
    -50.266  0.0000E+00  0.0000E+00
    -50.058  0.0000E+00  0.0000E+00
    -49.849  0.0000E+00  0.0000E+00
    -49.641  0.0000E+00  0.0000E+00
    -49.433 -0.3598E-35 -0.7491E-36
    -49.225 -0.1482E-27 -0.3084E-28
    -49.017 -0.6836E-21 -0.1423E-21
    -48.809 -0.3452E-15 -0.7186E-16
    -48.600 -0.1996E-10 -0.4156E-11
    -48.392 -0.1274E-06 -0.2653E-07
    -48.184 -0.8711E-04 -0.1816E-04
    -47.976 -0.5631E-02 -0.1191E-02
    -47.768  0.1223E-02 -0.9360E-03
    -47.559  0.3345E+00  0.6870E-01
    -47.351  0.4916E+00  0.1710E+00
    -47.143  0.1503E+00  0.2023E+00
    -46.935 -0.9141E-02  0.2004E+00
    -46.727 -0.2065E-02  0.2000E+00
    -46.519 -0.2050E-04  0.2000E+00
    -46.310 -0.1953E-07  0.2000E+00
    -46.102 -0.1959E-11  0.2000E+00
    -45.894 -0.3925E-16  0.2000E+00
    -45.686  0.0000E+00  0.2000E+00
    -45.478  0.0000E+00  0.2000E+00
    -45.269  0.0000E+00  0.2000E+00
    -45.061  0.0000E+00  0.2000E+00
    -44.853  0.0000E+00  0.2000E+00
    -44.645  0.0000E+00  0.2000E+00
    -44.437  0.0000E+00  0.2000E+00
    -44.228  0.0000E+00  0.2000E+00
    -44.020  0.0000E+00  0.2000E+00
    -43.812  0.0000E+00  0.2000E+00
    -43.604  0.0000E+00  0.2000E+00
    -43.396  0.0000E+00  0.2000E+00
    -43.188  0.0000E+00  0.2000E+00
    -42.979  0.0000E+00  0.2000E+00
    -42.771  0.0000E+00  0.2000E+00
    -42.563  0.0000E+00  0.2000E+00
    -42.355  0.0000E+00  0.2000E+00
    -42.147  0.0000E+00  0.2000E+00
    -41.938  0.0000E+00  0.2000E+00
    -41.730  0.0000E+00  0.2000E+00
    -41.522  0.0000E+00  0.2000E+00
    -41.314  0.0000E+00  0.2000E+00
    -41.106  0.0000E+00  0.2000E+00
    -40.898  0.0000E+00  0.2000E+00
    -40.689  0.0000E+00  0.2000E+00
    -40.481  0.0000E+00  0.2000E+00
    -40.273  0.0000E+00  0.2000E+00
    -40.065  0.0000E+00  0.2000E+00
    -39.857  0.0000E+00  0.2000E+00
    -39.648  0.0000E+00  0.2000E+00
    -39.440  0.0000E+00  0.2000E+00
    -39.232  0.0000E+00  0.2000E+00
    -39.024  0.0000E+00  0.2000E+00
    -38.816  0.0000E+00  0.2000E+00
    -38.608  0.0000E+00  0.2000E+00
    -38.399  0.0000E+00  0.2000E+00
    -38.191  0.0000E+00  0.2000E+00
    -37.983  0.0000E+00  0.2000E+00
    -37.775  0.0000E+00  0.2000E+00
    -37.567  0.0000E+00  0.2000E+00
    -37.358  0.0000E+00  0.2000E+00
    -37.150  0.0000E+00  0.2000E+00
    -36.942  0.0000E+00  0.2000E+00
    -36.734  0.0000E+00  0.2000E+00
    -36.526  0.0000E+00  0.2000E+00
    -36.318  0.0000E+00  0.2000E+00
    -36.109  0.0000E+00  0.2000E+00
    -35.901  0.0000E+00  0.2000E+00
    -35.693  0.0000E+00  0.2000E+00
    -35.485  0.0000E+00  0.2000E+00
    -35.277  0.0000E+00  0.2000E+00
    -35.068  0.0000E+00  0.2000E+00
    -34.860  0.0000E+00  0.2000E+00
    -34.652  0.0000E+00  0.2000E+00
    -34.444  0.0000E+00  0.2000E+00
    -34.236  0.0000E+00  0.2000E+00
    -34.028  0.0000E+00  0.2000E+00
    -33.819  0.0000E+00  0.2000E+00
    -33.611  0.0000E+00  0.2000E+00
    -33.403  0.0000E+00  0.2000E+00
    -33.195  0.0000E+00  0.2000E+00
    -32.987  0.0000E+00  0.2000E+00
    -32.778  0.0000E+00  0.2000E+00
    -32.570  0.0000E+00  0.2000E+00
    -32.362  0.0000E+00  0.2000E+00
    -32.154  0.0000E+00  0.2000E+00
    -31.946  0.0000E+00  0.2000E+00
    -31.737  0.0000E+00  0.2000E+00
    -31.529  0.0000E+00  0.2000E+00
    -31.321  0.0000E+00  0.2000E+00
    -31.113  0.0000E+00  0.2000E+00
    -30.905  0.0000E+00  0.2000E+00
    -30.697  0.0000E+00  0.2000E+00
    -30.488  0.0000E+00  0.2000E+00
    -30.280  0.0000E+00  0.2000E+00
    -30.072  0.0000E+00  0.2000E+00
    -29.864  0.0000E+00  0.2000E+00
    -29.656  0.0000E+00  0.2000E+00
    -29.447  0.0000E+00  0.2000E+00
    -29.239  0.0000E+00  0.2000E+00
    -29.031  0.0000E+00  0.2000E+00
    -28.823  0.0000E+00  0.2000E+00
    -28.615  0.0000E+00  0.2000E+00
    -28.407  0.0000E+00  0.2000E+00
    -28.198  0.0000E+00  0.2000E+00
    -27.990  0.0000E+00  0.2000E+00
    -27.782  0.0000E+00  0.2000E+00
    -27.574  0.0000E+00  0.2000E+00
    -27.366  0.0000E+00  0.2000E+00
    -27.157  0.0000E+00  0.2000E+00
    -26.949  0.0000E+00  0.2000E+00
    -26.741  0.0000E+00  0.2000E+00
    -26.533  0.0000E+00  0.2000E+00
    -26.325  0.0000E+00  0.2000E+00
    -26.117  0.0000E+00  0.2000E+00
    -25.908  0.0000E+00  0.2000E+00
    -25.700 -0.3477E-28  0.2000E+00
    -25.492 -0.1915E-21  0.2000E+00
    -25.284 -0.1182E-15  0.2000E+00
    -25.076 -0.7772E-11  0.2000E+00
    -24.867 -0.5687E-07  0.2000E+00
    -24.659 -0.4287E-04  0.2000E+00
    -24.451 -0.2840E-02  0.1994E+00
    -24.243 -0.2826E-04  0.1994E+00
    -24.035  0.1233E+00  0.2251E+00
    -23.827  0.5017E+00  0.3295E+00
    -23.618  0.1175E+01  0.5741E+00
    -23.410  0.7077E+00  0.7214E+00
    -23.202  0.2792E+00  0.7795E+00
    -22.994  0.1110E+00  0.8026E+00
    -22.786 -0.1170E-01  0.8002E+00
    -22.577 -0.9789E-03  0.8000E+00
    -22.369 -0.4964E-05  0.8000E+00
    -22.161 -0.2538E-08  0.8000E+00
    -21.953 -0.1411E-12  0.8000E+00
    -21.745  0.0000E+00  0.8000E+00
    -21.536  0.0000E+00  0.8000E+00
    -21.328  0.0000E+00  0.8000E+00
    -21.120  0.0000E+00  0.8000E+00
    -20.912  0.0000E+00  0.8000E+00
    -20.704  0.0000E+00  0.8000E+00
    -20.496  0.0000E+00  0.8000E+00
    -20.287  0.0000E+00  0.8000E+00
    -20.079  0.0000E+00  0.8000E+00
    -19.871  0.0000E+00  0.8000E+00
    -19.663  0.0000E+00  0.8000E+00
    -19.455  0.0000E+00  0.8000E+00
    -19.246  0.0000E+00  0.8000E+00
    -19.038  0.0000E+00  0.8000E+00
    -18.830  0.0000E+00  0.8000E+00
    -18.622  0.0000E+00  0.8000E+00
    -18.414  0.0000E+00  0.8000E+00
    -18.206  0.0000E+00  0.8000E+00
    -17.997  0.0000E+00  0.8000E+00
    -17.789  0.0000E+00  0.8000E+00
    -17.581  0.0000E+00  0.8000E+00
    -17.373  0.0000E+00  0.8000E+00
    -17.165  0.0000E+00  0.8000E+00
    -16.956  0.0000E+00  0.8000E+00
    -16.748  0.0000E+00  0.8000E+00
    -16.540  0.0000E+00  0.8000E+00
    -16.332  0.0000E+00  0.8000E+00
    -16.124  0.0000E+00  0.8000E+00
    -15.916  0.0000E+00  0.8000E+00
    -15.707  0.0000E+00  0.8000E+00
    -15.499  0.0000E+00  0.8000E+00
    -15.291  0.0000E+00  0.8000E+00
    -15.083  0.0000E+00  0.8000E+00
    -14.875  0.0000E+00  0.8000E+00
    -14.666  0.0000E+00  0.8000E+00
    -14.458  0.0000E+00  0.8000E+00
    -14.250  0.0000E+00  0.8000E+00
    -14.042  0.0000E+00  0.8000E+00
    -13.834  0.0000E+00  0.8000E+00
    -13.626  0.0000E+00  0.8000E+00
    -13.417  0.0000E+00  0.8000E+00
    -13.209  0.0000E+00  0.8000E+00
    -13.001  0.0000E+00  0.8000E+00
    -12.793  0.0000E+00  0.8000E+00
    -12.585  0.0000E+00  0.8000E+00
    -12.376  0.0000E+00  0.8000E+00
    -12.168  0.0000E+00  0.8000E+00
    -11.960  0.0000E+00  0.8000E+00
    -11.752  0.0000E+00  0.8000E+00
    -11.544  0.0000E+00  0.8000E+00
    -11.336  0.0000E+00  0.8000E+00
    -11.127  0.0000E+00  0.8000E+00
    -10.919  0.0000E+00  0.8000E+00
    -10.711  0.0000E+00  0.8000E+00
    -10.503  0.0000E+00  0.8000E+00
    -10.295  0.0000E+00  0.8000E+00
    -10.086  0.0000E+00  0.8000E+00
     -9.878  0.0000E+00  0.8000E+00
     -9.670  0.0000E+00  0.8000E+00
     -9.462  0.0000E+00  0.8000E+00
     -9.254  0.0000E+00  0.8000E+00
     -9.045  0.0000E+00  0.8000E+00
     -8.837  0.0000E+00  0.8000E+00
     -8.629  0.0000E+00  0.8000E+00
     -8.421  0.0000E+00  0.8000E+00
     -8.213  0.0000E+00  0.8000E+00
     -8.005  0.0000E+00  0.8000E+00
     -7.796  0.0000E+00  0.8000E+00
     -7.588  0.0000E+00  0.8000E+00
     -7.380  0.0000E+00  0.8000E+00
     -7.172  0.0000E+00  0.8000E+00
     -6.964  0.0000E+00  0.8000E+00
     -6.755  0.0000E+00  0.8000E+00
     -6.547  0.0000E+00  0.8000E+00
     -6.339  0.0000E+00  0.8000E+00
     -6.131  0.0000E+00  0.8000E+00
     -5.923  0.0000E+00  0.8000E+00
     -5.715  0.0000E+00  0.8000E+00
     -5.506  0.0000E+00  0.8000E+00
     -5.298  0.0000E+00  0.8000E+00
     -5.090  0.0000E+00  0.8000E+00
     -4.882  0.0000E+00  0.8000E+00
     -4.674  0.0000E+00  0.8000E+00
     -4.465  0.0000E+00  0.8000E+00
     -4.257  0.0000E+00  0.8000E+00
     -4.049  0.0000E+00  0.8000E+00
     -3.841  0.0000E+00  0.8000E+00
     -3.633  0.0000E+00  0.8000E+00
     -3.425  0.0000E+00  0.8000E+00
     -3.216  0.0000E+00  0.8000E+00
     -3.008  0.0000E+00  0.8000E+00
     -2.800  0.0000E+00  0.8000E+00
     -2.592 -0.9922E-36  0.8000E+00
     -2.384 -0.2675E-28  0.8000E+00
     -2.175 -0.8109E-22  0.8000E+00
     -1.967 -0.2693E-16  0.8000E+00
     -1.759 -0.1030E-11  0.8000E+00
     -1.551 -0.4417E-08  0.8000E+00
     -1.343 -0.2106E-05  0.8000E+00
     -1.135 -0.1035E-03  0.8000E+00
     -0.926 -0.6039E-04  0.8000E+00
     -0.718  0.5445E-02  0.8011E+00
     -0.510  0.1784E-01  0.8048E+00
     -0.302  0.3191E-01  0.8115E+00
     -0.094  0.3781E-01  0.8193E+00
      0.115  0.2902E-01  0.8254E+00
      0.323  0.4799E-01  0.8354E+00
      0.531  0.6706E-01  0.8493E+00
      0.739  0.5935E-01  0.8617E+00
      0.947  0.5613E-01  0.8734E+00
      1.155  0.8193E-01  0.8904E+00
      1.364  0.8245E-01  0.9076E+00
      1.572  0.8099E-01  0.9244E+00
      1.780  0.1203E+00  0.9495E+00
      1.988  0.1853E+00  0.9881E+00
      2.196  0.2641E+00  0.1043E+01
      2.405  0.3601E+00  0.1118E+01
      2.613  0.4150E+00  0.1204E+01
      2.821  0.4800E+00  0.1304E+01
      3.029  0.5606E+00  0.1421E+01
      3.237  0.5831E+00  0.1542E+01
      3.446  0.5639E+00  0.1660E+01
      3.654  0.5867E+00  0.1782E+01
      3.862  0.6200E+00  0.1911E+01
      4.070  0.5398E+00  0.2023E+01
      4.278  0.4981E+00  0.2127E+01
      4.486  0.6352E+00  0.2259E+01
      4.695  0.7580E+00  0.2417E+01
      4.903  0.7940E+00  0.2582E+01
      5.111  0.7542E+00  0.2740E+01
      5.319  0.7627E+00  0.2898E+01
      5.527  0.7448E+00  0.3053E+01
      5.736  0.7348E+00  0.3206E+01
      5.944  0.7633E+00  0.3365E+01
      6.152  0.8105E+00  0.3534E+01
      6.360  0.7480E+00  0.3690E+01
      6.568  0.6750E+00  0.3830E+01
      6.776  0.5750E+00  0.3950E+01
      6.985  0.4331E+00  0.4040E+01
      7.193  0.3506E+00  0.4113E+01
      7.401  0.3318E+00  0.4182E+01
      7.609  0.3219E+00  0.4249E+01
      7.817  0.3301E+00  0.4318E+01
      8.026  0.3936E+00  0.4400E+01
      8.234  0.4520E+00  0.4494E+01
      8.442  0.4898E+00  0.4596E+01
      8.650  0.4328E+00  0.4686E+01
      8.858  0.3338E+00  0.4755E+01
      9.066  0.1894E+00  0.4795E+01
      9.275  0.2875E-01  0.4801E+01
      9.483 -0.3857E-02  0.4800E+01
      9.691 -0.3976E-03  0.4800E+01
      9.899 -0.3909E-05  0.4800E+01
     10.107 -0.4562E-08  0.4800E+01
     10.316 -0.6229E-12  0.4800E+01
     10.524 -0.9557E-17  0.4800E+01
     10.732  0.0000E+00  0.4800E+01
     10.940  0.0000E+00  0.4800E+01
     11.148  0.0000E+00  0.4800E+01
     11.356  0.0000E+00  0.4800E+01
     11.565  0.0000E+00  0.4800E+01
     11.773  0.0000E+00  0.4800E+01
     11.981  0.0000E+00  0.4800E+01
