   29   29   50    1
  0.1679057E+02  0.5525242E-09  0.8287863E-09  0.1139058E-08  0.5000000E-15
  1.000000000000000E-004
  CAR 
 SQS with 1 vacancy for VFE and VRV      
    191     63    120
 
  0.0000000E+00  0.0000000E+00  0.0000000E+00  0.8000000E-02
    1      -47.635124   1.000000
    2      -47.582492   1.000000
    3      -47.503744   1.000000
    4      -47.445262   1.000000
    5      -47.322841   1.000000
    6      -24.089086   1.000000
    7      -23.906049   1.000000
    8      -23.857047   1.000000
    9      -23.794707   1.000000
   10      -23.765580   1.000000
   11      -23.722862   1.000000
   12      -23.699434   1.000000
   13      -23.666472   1.000000
   14      -23.658095   1.000000
   15      -23.611043   1.000000
   16      -23.600053   1.000000
   17      -23.537790   1.000000
   18      -23.494788   1.000000
   19      -23.280395   1.000000
   20      -23.219744   1.000000
   21       -0.833043   1.000000
   22        0.527760   1.000000
   23        0.872744   1.000000
   24        1.760814   1.000000
   25        1.795381   1.000000
   26        1.894136   1.000000
   27        1.983921   1.000000
   28        2.092564   1.000000
   29        2.237703   1.000000
   30        2.306662   1.000000
   31        2.395446   1.000000
   32        2.456227   1.000000
   33        2.544323   1.000000
   34        2.597618   1.000000
   35        2.699767   1.000000
   36        2.736561   1.000000
   37        2.844093   1.000000
   38        2.975163   1.000000
   39        3.045279   1.000000
   40        3.140944   1.000000
   41        3.215160   1.000000
   42        3.263024   1.000000
   43        3.315499   1.000000
   44        3.393788   1.000000
   45        3.415536   1.000000
   46        3.478371   1.000000
   47        3.626398   1.000000
   48        3.692364   1.000000
   49        3.737251   1.000000
   50        3.797437   1.000000
   51        3.881587   1.000000
   52        3.981817   1.000000
   53        4.001950   1.000000
   54        4.136675   1.000000
   55        4.271304   1.000000
   56        4.299519   1.000000
   57        4.332110   1.000000
   58        4.429041   1.000000
   59        4.500611   1.000000
   60        4.588197   1.000000
   61        4.616296   1.000000
   62        4.643991   1.000000
   63        4.753124   1.000000
   64        4.782816   1.000000
   65        4.819723   1.000000
   66        4.844754   1.000000
   67        4.882201   1.000000
   68        4.930452   1.000000
   69        4.989230   1.000000
   70        5.108908   1.000000
   71        5.192960   1.000000
   72        5.205790   1.000000
   73        5.251664   1.000000
   74        5.333121   1.000000
   75        5.348713   1.000000
   76        5.475540   1.000000
   77        5.593274   1.000000
   78        5.622939   1.000000
   79        5.690371   1.000000
   80        5.773325   1.000000
   81        5.830477   1.000002
   82        5.878889   1.000010
   83        5.950799   1.000089
   84        5.998168   1.000316
   85        6.101571   1.003230
   86        6.126567   1.005146
   87        6.217178   1.019585
   88        6.263845   1.030096
   89        6.290285   1.034443
   90        6.380851   1.003450
   91        6.546818   0.523893
   92        6.610744   0.264631
   93        6.634641   0.182699
   94        6.689053   0.046227
   95        6.745495  -0.021121
   96        6.797574  -0.035458
   97        6.860560  -0.025817
   98        6.941832  -0.009457
   99        7.048676  -0.001260
  100        7.241168  -0.000006
  101        7.402569  -0.000000
  102        7.492946  -0.000000
  103        7.624764  -0.000000
  104        7.690532  -0.000000
  105        7.763959  -0.000000
  106        8.029877  -0.000000
  107        8.182553  -0.000000
  108        8.309643  -0.000000
  109        8.423626  -0.000000
  110        8.509321  -0.000000
  111        8.610099  -0.000000
  112        8.784608  -0.000000
  113        8.807481  -0.000000
  114        8.835396  -0.000000
  115        8.875798  -0.000000
  116        8.943909  -0.000000
  117        8.952771  -0.000000
  118        8.991164  -0.000000
  119        9.028044  -0.000000
  120        9.074142  -0.000000
 
  0.2000000E+00 -0.1387779E-16  0.0000000E+00  0.1600000E-01
    1      -47.634509   1.000000
    2      -47.582522   1.000000
    3      -47.503099   1.000000
    4      -47.444668   1.000000
    5      -47.322808   1.000000
    6      -24.090608   1.000000
    7      -23.904235   1.000000
    8      -23.857748   1.000000
    9      -23.803403   1.000000
   10      -23.765418   1.000000
   11      -23.722376   1.000000
   12      -23.700035   1.000000
   13      -23.670404   1.000000
   14      -23.663729   1.000000
   15      -23.616610   1.000000
   16      -23.601187   1.000000
   17      -23.539217   1.000000
   18      -23.498573   1.000000
   19      -23.282931   1.000000
   20      -23.224346   1.000000
   21       -0.513563   1.000000
   22        0.795466   1.000000
   23        1.148272   1.000000
   24        1.836602   1.000000
   25        2.013137   1.000000
   26        2.104916   1.000000
   27        2.200198   1.000000
   28        2.331899   1.000000
   29        2.365338   1.000000
   30        2.487055   1.000000
   31        2.593632   1.000000
   32        2.637799   1.000000
   33        2.704522   1.000000
   34        2.805376   1.000000
   35        2.869323   1.000000
   36        2.915511   1.000000
   37        2.994115   1.000000
   38        3.088410   1.000000
   39        3.111119   1.000000
   40        3.133048   1.000000
   41        3.299889   1.000000
   42        3.391810   1.000000
   43        3.424534   1.000000
   44        3.574733   1.000000
   45        3.614611   1.000000
   46        3.657580   1.000000
   47        3.684928   1.000000
   48        3.767240   1.000000
   49        3.853785   1.000000
   50        3.878837   1.000000
   51        4.022817   1.000000
   52        4.041622   1.000000
   53        4.111248   1.000000
   54        4.212267   1.000000
   55        4.302880   1.000000
   56        4.372759   1.000000
   57        4.453496   1.000000
   58        4.545587   1.000000
   59        4.557959   1.000000
   60        4.628303   1.000000
   61        4.698992   1.000000
   62        4.748799   1.000000
   63        4.787951   1.000000
   64        4.826869   1.000000
   65        4.898415   1.000000
   66        4.937154   1.000000
   67        4.961839   1.000000
   68        4.995852   1.000000
   69        5.087866   1.000000
   70        5.146445   1.000000
   71        5.200902   1.000000
   72        5.242453   1.000000
   73        5.274427   1.000000
   74        5.309612   1.000000
   75        5.383709   1.000000
   76        5.439556   1.000000
   77        5.465135   1.000000
   78        5.551427   1.000000
   79        5.683873   1.000000
   80        5.702603   1.000000
   81        5.742877   1.000000
   82        5.859253   1.000005
   83        5.895226   1.000017
   84        5.970284   1.000152
   85        6.016963   1.000505
   86        6.098614   1.003049
   87        6.120486   1.004611
   88        6.167330   1.010089
   89        6.190827   1.014118
   90        6.275989   1.032397
   91        6.322745   1.034469
   92        6.402499   0.976078
   93        6.476940   0.795717
   94        6.523902   0.619513
   95        6.633701   0.185691
   96        6.665932   0.095186
   97        6.773101  -0.032787
   98        6.795857  -0.035448
   99        6.892045  -0.018639
  100        6.985453  -0.004527
  101        7.069889  -0.000778
  102        7.171344  -0.000055
  103        7.286077  -0.000001
  104        7.365047  -0.000000
  105        7.523838  -0.000000
  106        7.645731  -0.000000
  107        7.754793  -0.000000
  108        7.805960  -0.000000
  109        7.951663  -0.000000
  110        8.017308  -0.000000
  111        8.106922  -0.000000
  112        8.184053  -0.000000
  113        8.287314  -0.000000
  114        8.337902  -0.000000
  115        8.473227  -0.000000
  116        8.522002  -0.000000
  117        8.602603  -0.000000
  118        8.670866  -0.000000
  119        8.762727  -0.000000
  120        8.909742  -0.000000
 
  0.4000000E+00 -0.2775558E-16  0.0000000E+00  0.1600000E-01
    1      -47.633512   1.000000
    2      -47.582572   1.000000
    3      -47.502057   1.000000
    4      -47.443705   1.000000
    5      -47.322758   1.000000
    6      -24.093184   1.000000
    7      -23.902159   1.000000
    8      -23.858415   1.000000
    9      -23.817197   1.000000
   10      -23.765099   1.000000
   11      -23.721670   1.000000
   12      -23.701289   1.000000
   13      -23.678828   1.000000
   14      -23.671447   1.000000
   15      -23.625403   1.000000
   16      -23.602245   1.000000
   17      -23.541463   1.000000
   18      -23.504355   1.000000
   19      -23.287528   1.000000
   20      -23.231363   1.000000
   21        0.307239   1.000000
   22        1.245208   1.000000
   23        1.765962   1.000000
   24        1.917130   1.000000
   25        2.148385   1.000000
   26        2.307500   1.000000
   27        2.399122   1.000000
   28        2.616847   1.000000
   29        2.663166   1.000000
   30        2.833737   1.000000
   31        2.909828   1.000000
   32        2.936191   1.000000
   33        3.039615   1.000000
   34        3.095380   1.000000
   35        3.172229   1.000000
   36        3.204449   1.000000
   37        3.252903   1.000000
   38        3.324236   1.000000
   39        3.437799   1.000000
   40        3.464186   1.000000
   41        3.516151   1.000000
   42        3.605398   1.000000
   43        3.685632   1.000000
   44        3.717986   1.000000
   45        3.761089   1.000000
   46        3.843319   1.000000
   47        3.917759   1.000000
   48        4.042522   1.000000
   49        4.068135   1.000000
   50        4.136403   1.000000
   51        4.176010   1.000000
   52        4.240184   1.000000
   53        4.310796   1.000000
   54        4.383949   1.000000
   55        4.439816   1.000000
   56        4.465462   1.000000
   57        4.536434   1.000000
   58        4.592345   1.000000
   59        4.637917   1.000000
   60        4.658077   1.000000
   61        4.753362   1.000000
   62        4.789373   1.000000
   63        4.830517   1.000000
   64        4.858985   1.000000
   65        4.936884   1.000000
   66        5.007957   1.000000
   67        5.055060   1.000000
   68        5.090187   1.000000
   69        5.146883   1.000000
   70        5.176077   1.000000
   71        5.215208   1.000000
   72        5.276043   1.000000
   73        5.322765   1.000000
   74        5.352632   1.000000
   75        5.437523   1.000000
   76        5.459868   1.000000
   77        5.527840   1.000000
   78        5.546652   1.000000
   79        5.615343   1.000000
   80        5.661407   1.000000
   81        5.737774   1.000000
   82        5.758024   1.000000
   83        5.847274   1.000004
   84        5.866330   1.000007
   85        5.935787   1.000058
   86        5.962757   1.000124
   87        6.006674   1.000392
   88        6.044899   1.000976
   89        6.093138   1.002736
   90        6.130339   1.005502
   91        6.210243   1.018065
   92        6.232404   1.023051
   93        6.321301   1.034655
   94        6.362197   1.019314
   95        6.425230   0.935590
   96        6.496091   0.728362
   97        6.571967   0.417921
   98        6.611433   0.262109
   99        6.654488   0.124403
  100        6.670939   0.083441
  101        6.754700  -0.026248
  102        6.792137  -0.035347
  103        6.868489  -0.023986
  104        6.982517  -0.004776
  105        7.043054  -0.001425
  106        7.224803  -0.000011
  107        7.338244  -0.000000
  108        7.392725  -0.000000
  109        7.453151  -0.000000
  110        7.508024  -0.000000
  111        7.661194  -0.000000
  112        7.764457  -0.000000
  113        7.820529  -0.000000
  114        7.930540  -0.000000
  115        8.030674  -0.000000
  116        8.192212  -0.000000
  117        8.261275  -0.000000
  118        8.325473  -0.000000
  119        8.397095  -0.000000
  120        8.437582  -0.000000
 
  0.0000000E+00  0.2000000E+00  0.1387779E-16  0.1600000E-01
    1      -47.635116   1.000000
    2      -47.582491   1.000000
    3      -47.503703   1.000000
    4      -47.445088   1.000000
    5      -47.323059   1.000000
    6      -24.088692   1.000000
    7      -23.902608   1.000000
    8      -23.856146   1.000000
    9      -23.794701   1.000000
   10      -23.765603   1.000000
   11      -23.722952   1.000000
   12      -23.699423   1.000000
   13      -23.666486   1.000000
   14      -23.658138   1.000000
   15      -23.611198   1.000000
   16      -23.600077   1.000000
   17      -23.537660   1.000000
   18      -23.494601   1.000000
   19      -23.281974   1.000000
   20      -23.223957   1.000000
   21       -0.697994   1.000000
   22        0.578856   1.000000
   23        0.928000   1.000000
   24        1.357790   1.000000
   25        1.739317   1.000000
   26        1.937667   1.000000
   27        2.048716   1.000000
   28        2.176536   1.000000
   29        2.263788   1.000000
   30        2.351512   1.000000
   31        2.395501   1.000000
   32        2.464039   1.000000
   33        2.556996   1.000000
   34        2.576615   1.000000
   35        2.668126   1.000000
   36        2.704081   1.000000
   37        2.803056   1.000000
   38        2.894408   1.000000
   39        3.012591   1.000000
   40        3.116384   1.000000
   41        3.167481   1.000000
   42        3.273770   1.000000
   43        3.332743   1.000000
   44        3.442854   1.000000
   45        3.516021   1.000000
   46        3.563482   1.000000
   47        3.611165   1.000000
   48        3.703770   1.000000
   49        3.787013   1.000000
   50        3.839718   1.000000
   51        3.885300   1.000000
   52        3.918349   1.000000
   53        4.046809   1.000000
   54        4.218187   1.000000
   55        4.273229   1.000000
   56        4.314883   1.000000
   57        4.395868   1.000000
   58        4.510176   1.000000
   59        4.539730   1.000000
   60        4.604339   1.000000
   61        4.656882   1.000000
   62        4.694754   1.000000
   63        4.737345   1.000000
   64        4.789014   1.000000
   65        4.821762   1.000000
   66        4.870337   1.000000
   67        4.966643   1.000000
   68        4.991790   1.000000
   69        5.066774   1.000000
   70        5.121939   1.000000
   71        5.152960   1.000000
   72        5.222935   1.000000
   73        5.308091   1.000000
   74        5.365279   1.000000
   75        5.421933   1.000000
   76        5.509914   1.000000
   77        5.560111   1.000000
   78        5.648429   1.000000
   79        5.707977   1.000000
   80        5.765342   1.000000
   81        5.806379   1.000001
   82        5.854673   1.000005
   83        5.931316   1.000051
   84        5.967789   1.000142
   85        5.983451   1.000216
   86        6.064401   1.001505
   87        6.096303   1.002913
   88        6.128604   1.005336
   89        6.165572   1.009823
   90        6.299320   1.035213
   91        6.319273   1.034882
   92        6.431374   0.922451
   93        6.583853   0.368990
   94        6.660707   0.108117
   95        6.752701  -0.025249
   96        6.926272  -0.011923
   97        7.045641  -0.001347
   98        7.093653  -0.000439
   99        7.128465  -0.000180
  100        7.196385  -0.000026
  101        7.355296  -0.000000
  102        7.490021  -0.000000
  103        7.614984  -0.000000
  104        7.653720  -0.000000
  105        7.741483  -0.000000
  106        7.863795  -0.000000
  107        7.910600  -0.000000
  108        8.032790  -0.000000
  109        8.104429  -0.000000
  110        8.328776  -0.000000
  111        8.378834  -0.000000
  112        8.562445  -0.000000
  113        8.643560  -0.000000
  114        8.702840  -0.000000
  115        8.754281  -0.000000
  116        8.809100  -0.000000
  117        8.864484  -0.000000
  118        8.883512  -0.000000
  119        8.941019  -0.000000
  120        9.004442  -0.000000
 
  0.2000000E+00  0.2000000E+00 -0.4857226E-16  0.1600000E-01
    1      -47.634516   1.000000
    2      -47.582524   1.000000
    3      -47.503137   1.000000
    4      -47.444833   1.000000
    5      -47.322600   1.000000
    6      -24.090978   1.000000
    7      -23.907492   1.000000
    8      -23.858645   1.000000
    9      -23.803412   1.000000
   10      -23.765387   1.000000
   11      -23.722318   1.000000
   12      -23.700027   1.000000
   13      -23.670388   1.000000
   14      -23.663750   1.000000
   15      -23.616657   1.000000
   16      -23.601161   1.000000
   17      -23.539337   1.000000
   18      -23.498520   1.000000
   19      -23.281323   1.000000
   20      -23.220381   1.000000
   21       -0.504532   1.000000
   22        0.761515   1.000000
   23        1.159222   1.000000
   24        1.733607   1.000000
   25        1.968570   1.000000
   26        2.086104   1.000000
   27        2.150514   1.000000
   28        2.243802   1.000000
   29        2.417834   1.000000
   30        2.476377   1.000000
   31        2.549330   1.000000
   32        2.644242   1.000000
   33        2.716494   1.000000
   34        2.774987   1.000000
   35        2.859836   1.000000
   36        2.871616   1.000000
   37        2.947824   1.000000
   38        3.043945   1.000000
   39        3.146448   1.000000
   40        3.227891   1.000000
   41        3.311955   1.000000
   42        3.390458   1.000000
   43        3.441951   1.000000
   44        3.534748   1.000000
   45        3.595988   1.000000
   46        3.647648   1.000000
   47        3.697576   1.000000
   48        3.779696   1.000000
   49        3.846480   1.000000
   50        3.919555   1.000000
   51        4.028890   1.000000
   52        4.098955   1.000000
   53        4.134012   1.000000
   54        4.234797   1.000000
   55        4.286269   1.000000
   56        4.365903   1.000000
   57        4.436403   1.000000
   58        4.510000   1.000000
   59        4.558791   1.000000
   60        4.646970   1.000000
   61        4.664697   1.000000
   62        4.731168   1.000000
   63        4.766483   1.000000
   64        4.810728   1.000000
   65        4.858987   1.000000
   66        4.913180   1.000000
   67        4.932211   1.000000
   68        4.973316   1.000000
   69        5.009257   1.000000
   70        5.067341   1.000000
   71        5.195322   1.000000
   72        5.253699   1.000000
   73        5.314924   1.000000
   74        5.350842   1.000000
   75        5.403163   1.000000
   76        5.425735   1.000000
   77        5.499667   1.000000
   78        5.578236   1.000000
   79        5.637722   1.000000
   80        5.742578   1.000000
   81        5.786301   1.000000
   82        5.829121   1.000002
   83        5.908212   1.000026
   84        5.925557   1.000043
   85        6.004815   1.000374
   86        6.039655   1.000866
   87        6.086603   1.002399
   88        6.178819   1.011950
   89        6.245973   1.026183
   90        6.282912   1.033496
   91        6.416021   0.953516
   92        6.489021   0.754071
   93        6.534535   0.575537
   94        6.563816   0.452063
   95        6.673182   0.078388
   96        6.711921   0.010653
   97        6.785217  -0.034836
   98        6.841053  -0.030103
   99        6.921903  -0.012685
  100        6.974477  -0.005513
  101        7.069340  -0.000788
  102        7.160889  -0.000074
  103        7.287755  -0.000001
  104        7.342585  -0.000000
  105        7.410104  -0.000000
  106        7.593011  -0.000000
  107        7.720535  -0.000000
  108        7.859113  -0.000000
  109        8.145682  -0.000000
  110        8.274754  -0.000000
  111        8.348836  -0.000000
  112        8.460621  -0.000000
  113        8.633788  -0.000000
  114        8.711037  -0.000000
  115        8.734559  -0.000000
  116        8.808861  -0.000000
  117        8.844347  -0.000000
  118        8.865056  -0.000000
  119        8.935936  -0.000000
  120        9.009222  -0.000000
 
  0.4000000E+00  0.2000000E+00 -0.5551115E-16  0.1600000E-01
    1      -47.633524   1.000000
    2      -47.582575   1.000000
    3      -47.502119   1.000000
    4      -47.443978   1.000000
    5      -47.322415   1.000000
    6      -24.093767   1.000000
    7      -23.907053   1.000000
    8      -23.860405   1.000000
    9      -23.817221   1.000000
   10      -23.765053   1.000000
   11      -23.721541   1.000000
   12      -23.701418   1.000000
   13      -23.678803   1.000000
   14      -23.671415   1.000000
   15      -23.625413   1.000000
   16      -23.602202   1.000000
   17      -23.541663   1.000000
   18      -23.504346   1.000000
   19      -23.284366   1.000000
   20      -23.225259   1.000000
   21        0.233029   1.000000
   22        1.207533   1.000000
   23        1.644027   1.000000
   24        1.873432   1.000000
   25        1.967570   1.000000
   26        2.162548   1.000000
   27        2.427970   1.000000
   28        2.700594   1.000000
   29        2.789530   1.000000
   30        2.863137   1.000000
   31        2.932111   1.000000
   32        3.034451   1.000000
   33        3.088313   1.000000
   34        3.109200   1.000000
   35        3.174359   1.000000
   36        3.253721   1.000000
   37        3.287034   1.000000
   38        3.312863   1.000000
   39        3.347586   1.000000
   40        3.451038   1.000000
   41        3.506203   1.000000
   42        3.596427   1.000000
   43        3.677413   1.000000
   44        3.746421   1.000000
   45        3.791511   1.000000
   46        3.814754   1.000000
   47        3.887241   1.000000
   48        3.923250   1.000000
   49        4.004274   1.000000
   50        4.036456   1.000000
   51        4.141431   1.000000
   52        4.177476   1.000000
   53        4.251819   1.000000
   54        4.332780   1.000000
   55        4.421387   1.000000
   56        4.471330   1.000000
   57        4.518305   1.000000
   58        4.577233   1.000000
   59        4.631954   1.000000
   60        4.698990   1.000000
   61        4.743562   1.000000
   62        4.778923   1.000000
   63        4.821538   1.000000
   64        4.911555   1.000000
   65        4.953556   1.000000
   66        4.989355   1.000000
   67        5.050552   1.000000
   68        5.088887   1.000000
   69        5.130619   1.000000
   70        5.185867   1.000000
   71        5.216059   1.000000
   72        5.255109   1.000000
   73        5.326172   1.000000
   74        5.402893   1.000000
   75        5.446184   1.000000
   76        5.493320   1.000000
   77        5.576721   1.000000
   78        5.585425   1.000000
   79        5.627862   1.000000
   80        5.662562   1.000000
   81        5.704522   1.000000
   82        5.771864   1.000000
   83        5.792772   1.000001
   84        5.865121   1.000007
   85        5.903324   1.000022
   86        5.978017   1.000187
   87        5.993280   1.000279
   88        6.049686   1.001088
   89        6.095918   1.002891
   90        6.109580   1.003765
   91        6.164988   1.009735
   92        6.209278   1.017858
   93        6.259359   1.029157
   94        6.323988   1.034292
   95        6.389018   0.994329
   96        6.421934   0.942249
   97        6.484160   0.771190
   98        6.589702   0.345430
   99        6.602981   0.293631
  100        6.668676   0.088672
  101        6.794561  -0.035426
  102        6.835517  -0.031201
  103        6.946218  -0.008832
  104        7.025910  -0.002053
  105        7.198148  -0.000025
  106        7.351129  -0.000000
  107        7.534946  -0.000000
  108        7.616990  -0.000000
  109        7.748140  -0.000000
  110        7.807324  -0.000000
  111        7.922522  -0.000000
  112        7.996549  -0.000000
  113        8.121270  -0.000000
  114        8.187514  -0.000000
  115        8.205453  -0.000000
  116        8.243534  -0.000000
  117        8.357498  -0.000000
  118        8.421151  -0.000000
  119        8.465842  -0.000000
  120        8.561368  -0.000000
 
 -0.4000000E+00  0.2000000E+00 -0.3908332E-16  0.1600000E-01
    1      -47.633511   1.000000
    2      -47.582572   1.000000
    3      -47.502056   1.000000
    4      -47.443701   1.000000
    5      -47.322763   1.000000
    6      -24.093176   1.000000
    7      -23.902105   1.000000
    8      -23.858389   1.000000
    9      -23.817194   1.000000
   10      -23.765097   1.000000
   11      -23.721688   1.000000
   12      -23.701271   1.000000
   13      -23.678844   1.000000
   14      -23.671481   1.000000
   15      -23.625483   1.000000
   16      -23.602245   1.000000
   17      -23.541450   1.000000
   18      -23.504247   1.000000
   19      -23.287527   1.000000
   20      -23.231485   1.000000
   21        0.551076   1.000000
   22        1.213463   1.000000
   23        1.460214   1.000000
   24        1.984164   1.000000
   25        2.010350   1.000000
   26        2.253272   1.000000
   27        2.407782   1.000000
   28        2.566545   1.000000
   29        2.717734   1.000000
   30        2.817842   1.000000
   31        2.900387   1.000000
   32        2.952547   1.000000
   33        3.008253   1.000000
   34        3.093523   1.000000
   35        3.151959   1.000000
   36        3.200461   1.000000
   37        3.259495   1.000000
   38        3.339026   1.000000
   39        3.436491   1.000000
   40        3.463407   1.000000
   41        3.544939   1.000000
   42        3.626834   1.000000
   43        3.662524   1.000000
   44        3.698984   1.000000
   45        3.799211   1.000000
   46        3.859307   1.000000
   47        3.973584   1.000000
   48        4.043465   1.000000
   49        4.165067   1.000000
   50        4.193564   1.000000
   51        4.217372   1.000000
   52        4.269863   1.000000
   53        4.302357   1.000000
   54        4.383360   1.000000
   55        4.460353   1.000000
   56        4.491105   1.000000
   57        4.539233   1.000000
   58        4.599357   1.000000
   59        4.630606   1.000000
   60        4.692778   1.000000
   61        4.710731   1.000000
   62        4.762242   1.000000
   63        4.800432   1.000000
   64        4.818136   1.000000
   65        4.903925   1.000000
   66        4.942410   1.000000
   67        5.003809   1.000000
   68        5.068451   1.000000
   69        5.105700   1.000000
   70        5.181146   1.000000
   71        5.237668   1.000000
   72        5.272839   1.000000
   73        5.280264   1.000000
   74        5.375751   1.000000
   75        5.406718   1.000000
   76        5.451220   1.000000
   77        5.542881   1.000000
   78        5.576336   1.000000
   79        5.636103   1.000000
   80        5.678315   1.000000
   81        5.735411   1.000000
   82        5.761196   1.000000
   83        5.825175   1.000002
   84        5.881006   1.000011
   85        5.903364   1.000022
   86        5.984361   1.000222
   87        5.996448   1.000303
   88        6.066460   1.001574
   89        6.111437   1.003900
   90        6.153185   1.008088
   91        6.209513   1.017908
   92        6.250424   1.027194
   93        6.316382   1.035136
   94        6.361839   1.019555
   95        6.425324   0.935396
   96        6.464596   0.834994
   97        6.512576   0.665126
   98        6.571203   0.421105
   99        6.624266   0.216809
  100        6.704080   0.021471
  101        6.788908  -0.035163
  102        6.857991  -0.026405
  103        6.894122  -0.018188
  104        6.967583  -0.006215
  105        7.054513  -0.001106
  106        7.111712  -0.000279
  107        7.268352  -0.000003
  108        7.389646  -0.000000
  109        7.480874  -0.000000
  110        7.647343  -0.000000
  111        7.821325  -0.000000
  112        7.864075  -0.000000
  113        7.994794  -0.000000
  114        8.064049  -0.000000
  115        8.111665  -0.000000
  116        8.144905  -0.000000
  117        8.191934  -0.000000
  118        8.319797  -0.000000
  119        8.355207  -0.000000
  120        8.418605  -0.000000
 
 -0.2000000E+00  0.2000000E+00  0.1006140E-15  0.1600000E-01
    1      -47.634496   1.000000
    2      -47.582519   1.000000
    3      -47.503035   1.000000
    4      -47.444388   1.000000
    5      -47.323161   1.000000
    6      -24.090006   1.000000
    7      -23.899038   1.000000
    8      -23.855831   1.000000
    9      -23.803386   1.000000
   10      -23.765459   1.000000
   11      -23.722518   1.000000
   12      -23.699969   1.000000
   13      -23.670433   1.000000
   14      -23.663790   1.000000
   15      -23.616780   1.000000
   16      -23.601225   1.000000
   17      -23.538993   1.000000
   18      -23.498355   1.000000
   19      -23.286085   1.000000
   20      -23.230702   1.000000
   21       -0.272335   1.000000
   22        0.825257   1.000000
   23        1.180654   1.000000
   24        1.496515   1.000000
   25        1.874602   1.000000
   26        2.208840   1.000000
   27        2.294616   1.000000
   28        2.410484   1.000000
   29        2.457591   1.000000
   30        2.546264   1.000000
   31        2.582913   1.000000
   32        2.619477   1.000000
   33        2.689674   1.000000
   34        2.750214   1.000000
   35        2.853214   1.000000
   36        2.884647   1.000000
   37        2.949262   1.000000
   38        3.025594   1.000000
   39        3.092085   1.000000
   40        3.153319   1.000000
   41        3.263879   1.000000
   42        3.364171   1.000000
   43        3.382430   1.000000
   44        3.502722   1.000000
   45        3.623978   1.000000
   46        3.696637   1.000000
   47        3.758311   1.000000