       N       E                     dE             d eps       ncg     rms          rms(c)
DAV:   1     0.195354472825E+04    0.19535E+04   -0.86287E+04 15128   0.167E+03
DAV:   2     0.306904707766E+02   -0.19229E+04   -0.18508E+04 15120   0.486E+02
DAV:   3    -0.309447928728E+03   -0.34014E+03   -0.31958E+03 26672   0.173E+02
DAV:   4    -0.349938370729E+03   -0.40490E+02   -0.37181E+02 24024   0.551E+01
DAV:   5    -0.354049742520E+03   -0.41114E+01   -0.40285E+01 28208   0.193E+01    0.764E+01
DAV:   6    -0.344096879872E+03    0.99529E+01   -0.10732E+02 21376   0.303E+01    0.385E+01
DAV:   7    -0.361023889918E+03   -0.16927E+02   -0.40045E+02 22016   0.844E+01    0.279E+01
DAV:   8    -0.347835668215E+03    0.13188E+02   -0.12159E+02 22976   0.395E+01    0.199E+01
DAV:   9    -0.336012494960E+03    0.11823E+02   -0.20687E+01 20992   0.152E+01    0.130E+01
DAV:  10    -0.333008093729E+03    0.30044E+01   -0.93988E+00 22368   0.908E+00    0.882E+00
DAV:  11    -0.331875310516E+03    0.11328E+01   -0.47800E+00 22480   0.598E+00    0.448E+00
DAV:  12    -0.331733297081E+03    0.14201E+00   -0.12767E+00 22600   0.372E+00    0.276E+00
DAV:  13    -0.331772115898E+03   -0.38819E-01   -0.11847E+00 21848   0.319E+00    0.272E+00
DAV:  14    -0.331665471060E+03    0.10664E+00   -0.71105E-01 22280   0.260E+00    0.114E+00
DAV:  15    -0.331654569469E+03    0.10902E-01   -0.26510E-01 23576   0.154E+00    0.916E-01
DAV:  16    -0.331653463044E+03    0.11064E-02   -0.80978E-02 22944   0.852E-01    0.733E-01
DAV:  17    -0.331651483337E+03    0.19797E-02   -0.31251E-02 22808   0.516E-01    0.603E-01
DAV:  18    -0.331646295682E+03    0.51877E-02   -0.19421E-02 21456   0.415E-01    0.246E-01
DAV:  19    -0.331646107183E+03    0.18850E-03   -0.13160E-02 21920   0.328E-01    0.180E-01
DAV:  20    -0.331645725101E+03    0.38208E-03   -0.32182E-03 21000   0.162E-01    0.698E-02
DAV:  21    -0.331645674022E+03    0.51080E-04   -0.37722E-04 13984   0.725E-02
   1 F= -.33164567E+03 E0= -.33163826E+03  d E =-.331646E+03
       N       E                     dE             d eps       ncg     rms          rms(c)
DAV:   1    -0.333576827553E+03   -0.19311E+01   -0.14121E+02 19656   0.503E+01    0.154E+01
DAV:   2    -0.333843943940E+03   -0.26712E+00   -0.28396E+01 23944   0.227E+01    0.101E+01
DAV:   3    -0.332709422444E+03    0.11345E+01   -0.17843E+01 22280   0.123E+01    0.838E+00
DAV:   4    -0.332297614534E+03    0.41181E+00   -0.11500E+01 23832   0.113E+01    0.576E+00
DAV:   5    -0.331853118458E+03    0.44450E+00   -0.49843E+00 22904   0.734E+00    0.313E+00
DAV:   6    -0.331705671175E+03    0.14745E+00   -0.10643E+00 24376   0.336E+00    0.191E+00
DAV:   7    -0.331707991736E+03   -0.23206E-02   -0.44758E-01 24672   0.205E+00    0.152E+00
DAV:   8    -0.331697946239E+03    0.10045E-01   -0.19281E-01 23568   0.145E+00    0.106E+00
DAV:   9    -0.331701101188E+03   -0.31549E-02   -0.77899E-02 22576   0.805E-01    0.694E-01
DAV:  10    -0.331707998603E+03   -0.68974E-02   -0.71713E-02 23880   0.825E-01    0.595E-01
DAV:  11    -0.331707002243E+03    0.99636E-03   -0.44313E-02 23432   0.616E-01    0.311E-01
DAV:  12    -0.331706866931E+03    0.13531E-03   -0.10074E-02 24320   0.312E-01    0.148E-01
DAV:  13    -0.331707179824E+03   -0.31289E-03   -0.33859E-03 22904   0.174E-01    0.978E-02
DAV:  14    -0.331707135906E+03    0.43918E-04   -0.16150E-03 21096   0.125E-01    0.502E-02
DAV:  15    -0.331707090873E+03    0.45033E-04   -0.26554E-04 12144   0.648E-02
   2 F= -.33170709E+03 E0= -.33170049E+03  d E =-.614169E-01
       N       E                     dE             d eps       ncg     rms          rms(c)
DAV:   1    -0.332356533472E+03   -0.64940E+00   -0.31151E+01 19240   0.235E+01    0.726E+00
DAV:   2    -0.332438530546E+03   -0.81997E-01   -0.60392E+00 25968   0.103E+01    0.574E+00
DAV:   3    -0.332295369425E+03    0.14316E+00   -0.63880E+00 22856   0.795E+00    0.439E+00
DAV:   4    -0.332116787800E+03    0.17858E+00   -0.22609E+00 24408   0.466E+00    0.271E+00
DAV:   5    -0.331989599825E+03    0.12719E+00   -0.11255E+00 22928   0.335E+00    0.152E+00
DAV:   6    -0.331956071209E+03    0.33529E-01   -0.36514E-01 23480   0.199E+00    0.100E+00
DAV:   7    -0.331952094091E+03    0.39771E-02   -0.14347E-01 24728   0.116E+00    0.703E-01
DAV:   8    -0.331949898116E+03    0.21960E-02   -0.47713E-02 22984   0.688E-01    0.488E-01
DAV:   9    -0.331950178928E+03   -0.28081E-03   -0.18872E-02 22416   0.409E-01    0.357E-01
DAV:  10    -0.331951203588E+03   -0.10247E-02   -0.15280E-02 23040   0.351E-01    0.293E-01
DAV:  11    -0.331951461663E+03   -0.25807E-03   -0.80721E-03 23456   0.264E-01    0.156E-01
DAV:  12    -0.331951511683E+03   -0.50020E-04   -0.28962E-03 24816   0.163E-01    0.767E-02
DAV:  13    -0.331951546510E+03   -0.34827E-04   -0.11175E-03 22040   0.985E-02    0.540E-02
DAV:  14    -0.331951524950E+03    0.21560E-04   -0.44300E-04 14720   0.738E-02
   3 F= -.33195152E+03 E0= -.33194427E+03  d E =-.305851E+00
       N       E                     dE             d eps       ncg     rms          rms(c)
DAV:   1    -0.332079609558E+03   -0.12806E+00   -0.89821E+01 15544   0.305E+01    0.377E+00
DAV:   2    -0.332523456777E+03   -0.44385E+00   -0.65656E+00 23648   0.997E+00    0.389E+00
DAV:   3    -0.332400887617E+03    0.12257E+00   -0.25728E+00 22880   0.501E+00    0.241E+00
DAV:   4    -0.332333406943E+03    0.67481E-01   -0.49185E-01 23392   0.248E+00    0.157E+00
DAV:   5    -0.332318180446E+03    0.15226E-01   -0.22200E-01 22224   0.151E+00    0.118E+00
DAV:   6    -0.332316097491E+03    0.20830E-02   -0.21462E-01 23528   0.140E+00    0.976E-01
DAV:   7    -0.332305402837E+03    0.10695E-01   -0.10053E-01 24248   0.104E+00    0.596E-01
DAV:   8    -0.332300537084E+03    0.48658E-02   -0.37837E-02 23888   0.623E-01    0.329E-01
DAV:   9    -0.332300158676E+03    0.37841E-03   -0.10340E-02 22688   0.291E-01    0.241E-01
DAV:  10    -0.332300223073E+03   -0.64397E-04   -0.44275E-03 21544   0.196E-01    0.173E-01
DAV:  11    -0.332300226084E+03   -0.30112E-05   -0.30107E-03 21112   0.168E-01    0.107E-01
DAV:  12    -0.332300146393E+03    0.79692E-04   -0.14600E-03 20328   0.125E-01    0.455E-02
DAV:  13    -0.332300114040E+03    0.32353E-04   -0.34032E-04 13328   0.745E-02
   4 F= -.33230011E+03 E0= -.33229442E+03  d E =-.348589E+00
       N       E                     dE             d eps       ncg     rms          rms(c)
DAV:   1    -0.332301445343E+03   -0.12990E-02   -0.60049E+00 15408   0.783E+00    0.949E-01
DAV:   2    -0.332332296829E+03   -0.30851E-01   -0.45444E-01 23728   0.265E+00    0.102E+00
DAV:   3    -0.332321768260E+03    0.10529E-01   -0.16930E-01 22624   0.127E+00    0.594E-01
DAV:   4    -0.332317793029E+03    0.39752E-02   -0.30818E-02 22888   0.623E-01    0.390E-01
DAV:   5    -0.332316874886E+03    0.91814E-03   -0.15911E-02 22688   0.400E-01    0.296E-01
DAV:   6    -0.332316595532E+03    0.27935E-03   -0.13023E-02 23552   0.348E-01    0.232E-01
DAV:   7    -0.332315989721E+03    0.60581E-03   -0.60130E-03 23056   0.259E-01    0.144E-01
DAV:   8    -0.332315704629E+03    0.28509E-03   -0.21215E-03 20800   0.148E-01    0.789E-02
DAV:   9    -0.332315684659E+03    0.19971E-04   -0.49681E-04 15280   0.736E-02
   5 F= -.33231568E+03 E0= -.33231038E+03  d E =-.364160E+00
       N       E                     dE             d eps       ncg     rms          rms(c)
DAV:   1    -0.332340195826E+03   -0.24491E-01   -0.83856E+00 15120   0.974E+00    0.158E+00
DAV:   2    -0.332377520896E+03   -0.37325E-01   -0.66082E-01 21512   0.307E+00    0.114E+00
DAV:   3    -0.332372579456E+03    0.49414E-02   -0.29235E-01 22040   0.183E+00    0.891E-01
DAV:   4    -0.332361102674E+03    0.11477E-01   -0.80212E-02 22112   0.947E-01    0.413E-01
DAV:   5    -0.332360036460E+03    0.10662E-02   -0.32924E-02 22656   0.605E-01    0.321E-01
DAV:   6    -0.332358808552E+03    0.12279E-02   -0.18869E-02 23968   0.423E-01    0.210E-01
DAV:   7    -0.332358395509E+03    0.41304E-03   -0.73255E-03 22728   0.251E-01    0.142E-01
DAV:   8    -0.332358167997E+03    0.22751E-03   -0.18504E-03 20424   0.127E-01    0.827E-02
DAV:   9    -0.332358164131E+03    0.38663E-05   -0.29468E-04 12232   0.665E-02
   6 F= -.33235816E+03 E0= -.33235319E+03  d E =-.424795E-01
       N       E                     dE             d eps       ncg     rms          rms(c)
DAV:   1    -0.332358430956E+03   -0.26296E-03   -0.94355E-01 15120   0.326E+00    0.527E-01
DAV:   2    -0.332362663915E+03   -0.42330E-02   -0.74087E-02 21512   0.104E+00    0.386E-01
DAV:   3    -0.332362072660E+03    0.59125E-03   -0.32696E-02 21512   0.605E-01    0.300E-01
DAV:   4    -0.332360915378E+03    0.11573E-02   -0.10219E-02 22160   0.334E-01    0.157E-01
DAV:   5    -0.332360703696E+03    0.21168E-03   -0.45201E-03 21792   0.225E-01    0.109E-01
DAV:   6    -0.332360515257E+03    0.18844E-03   -0.16776E-03 21440   0.137E-01    0.550E-02
DAV:   7    -0.332360495950E+03    0.19307E-04   -0.49512E-04 15120   0.782E-02
   7 F= -.33236050E+03 E0= -.33235566E+03  d E =-.448113E-01
       N       E                     dE             d eps       ncg     rms          rms(c)
DAV:   1    -0.332386060643E+03   -0.25545E-01   -0.37761E+00 15120   0.708E+00    0.157E+00
DAV:   2    -0.332395303661E+03   -0.92430E-02   -0.39411E-01 22120   0.240E+00    0.956E-01
DAV:   3    -0.332398594793E+03   -0.32911E-02   -0.24006E-01 22024   0.159E+00    0.100E+00
DAV:   4    -0.332386062278E+03    0.12533E-01   -0.12114E-01 22040   0.112E+00    0.552E-01
DAV:   5    -0.332381555974E+03    0.45063E-02   -0.48311E-02 22728   0.697E-01    0.297E-01
DAV:   6    -0.332380019573E+03    0.15364E-02   -0.12941E-02 23336   0.369E-01    0.145E-01
DAV:   7    -0.332380110350E+03   -0.90778E-04   -0.41502E-03 23816   0.194E-01    0.115E-01
DAV:   8    -0.332380008446E+03    0.10190E-03   -0.14848E-03 20752   0.129E-01    0.821E-02
DAV:   9    -0.332380020828E+03   -0.12381E-04   -0.36457E-04 13568   0.672E-02
   8 F= -.33238002E+03 E0= -.33237532E+03  d E =-.195249E-01
       N       E                     dE             d eps       ncg     rms          rms(c)
DAV:   1    -0.332380716458E+03   -0.70801E-03   -0.22647E-01 15432   0.173E+00    0.380E-01
DAV:   2    -0.332381228186E+03   -0.51173E-03   -0.22663E-02 21552   0.593E-01    0.229E-01
DAV:   3    -0.332381420605E+03   -0.19242E-03   -0.14114E-02 22288   0.392E-01    0.227E-01
DAV:   4    -0.332380707054E+03    0.71355E-03   -0.65604E-03 21048   0.268E-01    0.123E-01
DAV:   5    -0.332380502373E+03    0.20468E-03   -0.25883E-03 21560   0.163E-01    0.719E-02
DAV:   6    -0.332380436673E+03    0.65700E-04   -0.63634E-04 16400   0.886E-02
   9 F= -.33238044E+03 E0= -.33237579E+03  d E =-.199407E-01
       N       E                     dE             d eps       ncg     rms          rms(c)
DAV:   1    -0.332384847825E+03   -0.43455E-02   -0.42277E-01 16640   0.209E+00    0.157E-01
DAV:   2    -0.332386551549E+03   -0.17037E-02   -0.20739E-02 24864   0.610E-01    0.164E-01
DAV:   3    -0.332386381095E+03    0.17045E-03   -0.45388E-03 24208   0.209E-01    0.115E-01
DAV:   4    -0.332386222496E+03    0.15860E-03   -0.10233E-03 18456   0.111E-01    0.695E-02
DAV:   5    -0.332386218285E+03    0.42112E-05   -0.63621E-04 16496   0.851E-02
  10 F= -.33238622E+03 E0= -.33238153E+03  d E =-.578161E-02
       N       E                     dE             d eps       ncg     rms          rms(c)
DAV:   1    -0.332384026368E+03    0.21961E-02   -0.38010E+00 16616   0.627E+00    0.460E-01
DAV:   2    -0.332399473889E+03   -0.15448E-01   -0.19045E-01 24872   0.185E+00    0.514E-01
DAV:   3    -0.332397095094E+03    0.23788E-02   -0.42592E-02 24640   0.651E-01    0.324E-01
DAV:   4    -0.332395928572E+03    0.11665E-02   -0.85695E-03 23616   0.316E-01    0.204E-01
DAV:   5    -0.332395978122E+03   -0.49551E-04   -0.62001E-03 21920   0.239E-01    0.206E-01
DAV:   6    -0.332395460795E+03    0.51733E-03   -0.42476E-03 21072   0.202E-01    0.103E-01
DAV:   7    -0.332395373018E+03    0.87777E-04   -0.13048E-03 19328   0.129E-01    0.683E-02
DAV:   8    -0.332395282768E+03    0.90250E-04   -0.60329E-04 15872   0.931E-02
  11 F= -.33239528E+03 E0= -.33239063E+03  d E =-.148461E-01
       N       E                     dE             d eps       ncg     rms          rms(c)
DAV:   1    -0.332399593112E+03   -0.42201E-02   -0.39687E-01 18208   0.259E+00    0.707E-01
DAV:   2    -0.332400713125E+03   -0.11200E-02   -0.65365E-02 24336   0.104E+00    0.468E-01
DAV:   3    -0.332399694368E+03    0.10188E-02   -0.51729E-02 22360   0.724E-01    0.378E-01
DAV:   4    -0.332397536062E+03    0.21583E-02   -0.16763E-02 22272   0.412E-01    0.170E-01
DAV:   5    -0.332397227185E+03    0.30888E-03   -0.60289E-03 22912   0.251E-01    0.140E-01
DAV:   6    -0.332396967382E+03    0.25980E-03   -0.24455E-03 20960   0.149E-01    0.720E-02
DAV:   7    -0.332396957167E+03    0.10215E-04   -0.62001E-04 16368   0.840E-02
  12 F= -.33239696E+03 E0= -.33239232E+03  d E =-.167440E-02
       N       E                     dE             d eps       ncg     rms          rms(c)
DAV:   1    -0.332397006002E+03   -0.38619E-04   -0.33518E-03 18504   0.234E-01    0.814E-02
DAV:   2    -0.332397098596E+03   -0.92594E-04   -0.14645E-03 21952   0.140E-01    0.822E-02
DAV:   3    -0.332397012702E+03    0.85894E-04   -0.10645E-03 18144   0.102E-01    0.501E-02
DAV:   4    -0.332396997082E+03    0.15620E-04   -0.19882E-04 11288   0.596E-02
  13 F= -.33239700E+03 E0= -.33239237E+03  d E =-.171431E-02
       N       E                     dE             d eps       ncg     rms          rms(c)
DAV:   1    -0.332397588185E+03   -0.57548E-03   -0.22588E-01 16560   0.161E+00    0.113E-01
DAV:   2    -0.332398763341E+03   -0.11752E-02   -0.13093E-02 22664   0.465E-01    0.121E-01
DAV:   3    -0.332398666373E+03    0.96967E-04   -0.23228E-03 22656   0.168E-01    0.822E-02
DAV:   4    -0.332398592911E+03    0.73462E-04   -0.43031E-04 14064   0.780E-02
  14 F= -.33239859E+03 E0= -.33239395E+03  d E =-.159583E-02
       N       E                     dE             d eps       ncg     rms          rms(c)
DAV:   1    -0.332391959216E+03    0.67072E-02   -0.20271E+00 16512   0.481E+00    0.330E-01
DAV:   2    -0.332402401281E+03   -0.10442E-01   -0.11550E-01 22952   0.139E+00    0.357E-01
DAV:   3    -0.332401669760E+03    0.73152E-03   -0.19212E-02 24080   0.472E-01    0.248E-01
DAV:   4    -0.332401118124E+03    0.55164E-03   -0.41957E-03 23392   0.214E-01    0.160E-01
DAV:   5    -0.332401160611E+03   -0.42487E-04   -0.25007E-03 21240   0.162E-01    0.151E-01
DAV:   6    -0.332400935317E+03    0.22529E-03   -0.20799E-03 21296   0.157E-01    0.825E-02
DAV:   7    -0.332400803950E+03    0.13137E-03   -0.74317E-04 17880   0.100E-01    0.340E-02
DAV:   8    -0.332400796005E+03    0.79443E-05   -0.15553E-04 10840   0.584E-02
  15 F= -.33240080E+03 E0= -.33239612E+03  d E =-.379892E-02
       N       E                     dE             d eps       ncg     rms          rms(c)
DAV:   1    -0.332402205029E+03   -0.14011E-02   -0.18326E-01 15320   0.163E+00    0.388E-01
DAV:   2    -0.332402535081E+03   -0.33005E-03   -0.19959E-02 22264   0.551E-01    0.213E-01
DAV:   3    -0.332402742042E+03   -0.20696E-03   -0.11948E-02 21904   0.352E-01    0.217E-01
DAV:   4    -0.332402100163E+03    0.64188E-03   -0.63874E-03 21008   0.260E-01    0.121E-01
DAV:   5    -0.332401896027E+03    0.20414E-03   -0.24203E-03 20488   0.157E-01    0.709E-02
DAV:   6    -0.332401815183E+03    0.80844E-04   -0.55335E-04 14752   0.863E-02
  16 F= -.33240182E+03 E0= -.33239710E+03  d E =-.101918E-02
       N       E                     dE             d eps       ncg     rms          rms(c)
DAV:   1    -0.332401850283E+03    0.45744E-04   -0.87244E-03 16032   0.362E-01    0.848E-02
DAV:   2    -0.332401925252E+03   -0.74969E-04   -0.11676E-03 19096   0.141E-01    0.672E-02
DAV:   3    -0.332401882188E+03    0.43064E-04   -0.75775E-04 16144   0.977E-02
  17 F= -.33240188E+03 E0= -.33239715E+03  d E =-.108618E-02
       N       E                     dE             d eps       ncg     rms          rms(c)
DAV:   1    -0.332402503636E+03   -0.57838E-03   -0.14853E-01 15136   0.126E+00    0.178E-01
DAV:   2    -0.332403362782E+03   -0.85915E-03   -0.12364E-02 23064   0.411E-01    0.173E-01
DAV:   3    -0.332403101956E+03    0.26083E-03   -0.49241E-03 20952   0.217E-01    0.117E-01
DAV:   4    -0.332402966995E+03    0.13496E-03   -0.11847E-03 19248   0.113E-01    0.687E-02
DAV:   5    -0.332402941993E+03    0.25002E-04   -0.70442E-04 15704   0.933E-02
  18 F= -.33240294E+03 E0= -.33239822E+03  d E =-.105981E-02
       N       E                     dE             d eps       ncg     rms          rms(c)
DAV:   1    -0.332401532413E+03    0.14346E-02   -0.64205E-01 15136   0.261E+00    0.368E-01
DAV:   2    -0.332404958395E+03   -0.34260E-02   -0.51510E-02 22504   0.853E-01    0.339E-01
DAV:   3    -0.332403811601E+03    0.11468E-02   -0.19856E-02 21424   0.453E-01    0.213E-01
DAV:   4    -0.332403299649E+03    0.51195E-03   -0.45552E-03 21888   0.227E-01    0.127E-01
DAV:   5    -0.332403269564E+03    0.30086E-04   -0.30969E-03 21840   0.178E-01    0.113E-01
DAV:   6    -0.332403088103E+03    0.18146E-03   -0.16765E-03 20064   0.127E-01    0.562E-02
DAV:   7    -0.332403045766E+03    0.42337E-04   -0.53003E-04 15296   0.804E-02
  19 F= -.33240305E+03 E0= -.33239828E+03  d E =-.116358E-02
       N       E                     dE             d eps       ncg     rms          rms(c)
DAV:   1    -0.332405549019E+03   -0.24609E-02   -0.20567E-01 18376   0.183E+00    0.539E-01
DAV:   2    -0.332406162368E+03   -0.61335E-03   -0.37322E-02 25168   0.792E-01    0.384E-01
DAV:   3    -0.332405230399E+03    0.93197E-03   -0.31728E-02 22144   0.540E-01    0.308E-01
DAV:   4    -0.332404199994E+03    0.10304E-02   -0.12922E-02 22896   0.350E-01    0.179E-01
DAV:   5    -0.332403778568E+03    0.42143E-03   -0.53973E-03 22552   0.234E-01    0.112E-01
DAV:   6    -0.332403554476E+03    0.22409E-03   -0.14562E-03 19728   0.130E-01    0.549E-02
DAV:   7    -0.332403560410E+03   -0.59340E-05   -0.50253E-04 15088   0.766E-02
  20 F= -.33240356E+03 E0= -.33239881E+03  d E =-.514644E-03
       N       E                     dE             d eps       ncg     rms          rms(c)
DAV:   1    -0.332403916143E+03   -0.36167E-03   -0.19076E-02 18840   0.554E-01    0.173E-01
DAV:   2    -0.332404088963E+03   -0.17282E-03   -0.47797E-03 25008   0.268E-01    0.144E-01
DAV:   3    -0.332403903298E+03    0.18567E-03   -0.39254E-03 20872   0.188E-01    0.107E-01
DAV:   4    -0.332403807669E+03    0.95629E-04   -0.12691E-03 18992   0.111E-01    0.685E-02
DAV:   5    -0.332403740312E+03    0.67357E-04   -0.64966E-04 15792   0.881E-02
  21 F= -.33240374E+03 E0= -.33239899E+03  d E =-.694546E-03
