<?xml version="1.0" encoding="ISO-8859-1"?>
<modeling>
 <generator>
  <i name="program" type="string">vasp </i>
  <i name="version" type="string">5.4.4.18Apr17-6-g9f103f2a35  </i>
  <i name="subversion" type="string">(build Aug 09 2018 16:20:53) complex            parallel </i>
  <i name="platform" type="string">LinuxIFC </i>
  <i name="date" type="string">2020 04 12 </i>
  <i name="time" type="string">22:30:03 </i>
 </generator>
 <incar>
  <i type="string" name="SYSTEM"> SQS with 1 vacancy for VFE and VRV</i>
  <i type="string" name="PREC">normal</i>
  <i type="int" name="IALGO">    38</i>
  <i type="int" name="ICHARG">     2</i>
  <i type="int" name="IBRION">     2</i>
  <i type="int" name="NSW">    50</i>
  <i type="int" name="ISIF">     3</i>
  <i type="int" name="ISYM">     0</i>
  <i name="ENCUT">    600.00000000</i>
  <i type="string" name="LREAL"> Auto</i>
  <i type="int" name="ISMEAR">     1</i>
  <i name="SIGMA">      0.20000000</i>
  <v type="int" name="KPOINT_BSE">    -1     0     0     0</v>
  <i type="string" name="GGA"> PS</i>
 </incar>
 <structure name="primitive_cell" >
  <crystal>
   <varray name="basis" >
    <v>      -3.19000000      -3.19000000      -3.19000000 </v>
    <v>       1.59500000       1.59500000      -7.97500000 </v>
    <v>       7.97500000      -7.97500000      -1.59500000 </v>
   </varray>
   <i name="volume">    486.92638500 </i>
   <varray name="rec_basis" >
    <v>      -0.13584117      -0.12539185      -0.05224660 </v>
    <v>       0.04179728       0.06269592      -0.10449321 </v>
    <v>       0.06269592      -0.06269592       0.00000000 </v>
   </varray>
  </crystal>
  <varray name="positions" >
   <v>      -0.03333333      -0.06666667       0.40000000 </v>
   <v>       0.30000000      -0.40000000       0.40000000 </v>
   <v>      -0.10000000      -0.20000000       0.20000000 </v>
   <v>       0.06666667       0.13333333       0.20000000 </v>
   <v>       0.46666667      -0.06666667       0.40000000 </v>
   <v>      -0.13333333      -0.26666667      -0.40000000 </v>
   <v>       0.03333333       0.06666667      -0.40000000 </v>
   <v>      -0.36666667       0.26666667       0.40000000 </v>
   <v>       0.40000000      -0.20000000       0.20000000 </v>
   <v>      -0.20000000      -0.40000000       0.40000000 </v>
   <v>      -0.43333333       0.13333333       0.20000000 </v>
   <v>       0.36666667      -0.26666667      -0.40000000 </v>
   <v>       0.13333333       0.26666667       0.40000000 </v>
   <v>      -0.46666667       0.06666667      -0.40000000 </v>
   <v>       0.23333333       0.46666667       0.20000000 </v>
   <v>       0.20000000       0.40000000      -0.40000000 </v>
   <v>      -0.06666667      -0.13333333      -0.20000000 </v>
   <v>      -0.30000000       0.40000000      -0.40000000 </v>
   <v>      -0.26666667       0.46666667       0.20000000 </v>
   <v>       0.33333333      -0.33333333       0.00000000 </v>
   <v>       0.43333333      -0.13333333      -0.20000000 </v>
   <v>      -0.50000000       0.00000000       0.00000000 </v>
   <v>       0.26666667      -0.46666667      -0.20000000 </v>
   <v>      -0.33333333       0.33333333       0.00000000 </v>
   <v>      -0.40000000       0.20000000      -0.20000000 </v>
   <v>      -0.16666667      -0.33333333       0.00000000 </v>
   <v>      -0.23333333      -0.46666667      -0.20000000 </v>
   <v>       0.16666667       0.33333333       0.00000000 </v>
   <v>       0.10000000       0.20000000      -0.20000000 </v>
  </varray>
 </structure>
 <varray name="primitive_index" >
  <v type="int" >        1 </v>
  <v type="int" >       17 </v>
  <v type="int" >        6 </v>
  <v type="int" >       23 </v>
  <v type="int" >       19 </v>
  <v type="int" >       18 </v>
  <v type="int" >        5 </v>
  <v type="int" >        2 </v>
  <v type="int" >       15 </v>
  <v type="int" >        7 </v>
  <v type="int" >       14 </v>
  <v type="int" >       10 </v>
  <v type="int" >       11 </v>
  <v type="int" >       27 </v>
  <v type="int" >       29 </v>
  <v type="int" >       22 </v>
  <v type="int" >       13 </v>
  <v type="int" >       25 </v>
  <v type="int" >        8 </v>
  <v type="int" >       28 </v>
  <v type="int" >       16 </v>
  <v type="int" >        3 </v>
  <v type="int" >       21 </v>
  <v type="int" >        9 </v>
  <v type="int" >       26 </v>
  <v type="int" >       12 </v>
  <v type="int" >       24 </v>
  <v type="int" >       20 </v>
  <v type="int" >        4 </v>
 </varray>
 <kpoints>
  <generation param="Gamma">
   <v type="int" name="divisions">       5        5        5 </v>
   <v name="usershift">      0.00000000       0.00000000       0.00000000 </v>
   <v name="genvec1">      0.20000000      -0.00000000      -0.00000000 </v>
   <v name="genvec2">      0.00000000       0.20000000       0.00000000 </v>
   <v name="genvec3">      0.00000000       0.00000000       0.20000000 </v>
   <v name="shift">      0.00000000       0.00000000       0.00000000 </v>
  </generation>
  <varray name="kpointlist" >
   <v>       0.00000000       0.00000000       0.00000000 </v>
   <v>       0.20000000      -0.00000000       0.00000000 </v>
   <v>       0.40000000      -0.00000000       0.00000000 </v>
   <v>       0.00000000       0.20000000       0.00000000 </v>
   <v>       0.20000000       0.20000000      -0.00000000 </v>
   <v>       0.40000000       0.20000000      -0.00000000 </v>
   <v>      -0.40000000       0.20000000      -0.00000000 </v>
   <v>      -0.20000000       0.20000000       0.00000000 </v>
   <v>       0.00000000       0.40000000       0.00000000 </v>
   <v>       0.20000000       0.40000000       0.00000000 </v>
   <v>       0.40000000       0.40000000      -0.00000000 </v>
   <v>      -0.40000000       0.40000000       0.00000000 </v>
   <v>      -0.20000000       0.40000000       0.00000000 </v>
   <v>       0.00000000       0.00000000       0.20000000 </v>
   <v>       0.20000000      -0.00000000       0.20000000 </v>
   <v>       0.40000000       0.00000000       0.20000000 </v>
   <v>      -0.40000000       0.00000000       0.20000000 </v>
   <v>      -0.20000000       0.00000000       0.20000000 </v>
   <v>       0.00000000       0.20000000       0.20000000 </v>
   <v>       0.20000000       0.20000000       0.20000000 </v>
   <v>       0.40000000       0.20000000       0.20000000 </v>
   <v>      -0.40000000       0.20000000       0.20000000 </v>
   <v>      -0.20000000       0.20000000       0.20000000 </v>
   <v>       0.00000000       0.40000000       0.20000000 </v>
   <v>       0.20000000       0.40000000       0.20000000 </v>
   <v>       0.40000000       0.40000000       0.20000000 </v>
   <v>      -0.40000000       0.40000000       0.20000000 </v>
   <v>      -0.20000000       0.40000000       0.20000000 </v>
   <v>       0.00000000      -0.40000000       0.20000000 </v>
   <v>       0.20000000      -0.40000000       0.20000000 </v>
   <v>       0.40000000      -0.40000000       0.20000000 </v>
   <v>      -0.40000000      -0.40000000       0.20000000 </v>
   <v>      -0.20000000      -0.40000000       0.20000000 </v>
   <v>       0.00000000      -0.20000000       0.20000000 </v>
   <v>       0.20000000      -0.20000000       0.20000000 </v>
   <v>       0.40000000      -0.20000000       0.20000000 </v>
   <v>      -0.40000000      -0.20000000       0.20000000 </v>
   <v>      -0.20000000      -0.20000000       0.20000000 </v>
   <v>       0.00000000       0.00000000       0.40000000 </v>
   <v>       0.20000000      -0.00000000       0.40000000 </v>
   <v>       0.40000000      -0.00000000       0.40000000 </v>
   <v>      -0.40000000       0.00000000       0.40000000 </v>
   <v>      -0.20000000       0.00000000       0.40000000 </v>
   <v>      -0.00000000       0.20000000       0.40000000 </v>
   <v>       0.20000000       0.20000000       0.40000000 </v>
   <v>       0.40000000       0.20000000       0.40000000 </v>
   <v>      -0.40000000       0.20000000       0.40000000 </v>
   <v>      -0.20000000       0.20000000       0.40000000 </v>
   <v>       0.00000000       0.40000000       0.40000000 </v>
   <v>       0.20000000       0.40000000       0.40000000 </v>
   <v>       0.40000000       0.40000000       0.40000000 </v>
   <v>      -0.40000000       0.40000000       0.40000000 </v>
   <v>      -0.20000000       0.40000000       0.40000000 </v>
   <v>       0.00000000      -0.40000000       0.40000000 </v>
   <v>       0.20000000      -0.40000000       0.40000000 </v>
   <v>       0.40000000      -0.40000000       0.40000000 </v>
   <v>      -0.40000000      -0.40000000       0.40000000 </v>
   <v>      -0.20000000      -0.40000000       0.40000000 </v>
   <v>       0.00000000      -0.20000000       0.40000000 </v>
   <v>       0.20000000      -0.20000000       0.40000000 </v>
   <v>       0.40000000      -0.20000000       0.40000000 </v>
   <v>      -0.40000000      -0.20000000       0.40000000 </v>
   <v>      -0.20000000      -0.20000000       0.40000000 </v>
  </varray>
  <varray name="weights" >
   <v>       0.00800000 </v>
   <v>       0.01600000 </v>
   <v>       0.01600000 </v>
   <v>       0.01600000 </v>
   <v>       0.01600000 </v>
   <v>       0.01600000 </v>
   <v>       0.01600000 </v>
   <v>       0.01600000 </v>
   <v>       0.01600000 </v>
   <v>       0.01600000 </v>
   <v>       0.01600000 </v>
   <v>       0.01600000 </v>
   <v>       0.01600000 </v>
   <v>       0.01600000 </v>
   <v>       0.01600000 </v>
   <v>       0.01600000 </v>
   <v>       0.01600000 </v>
   <v>       0.01600000 </v>
   <v>       0.01600000 </v>
   <v>       0.01600000 </v>
   <v>       0.01600000 </v>
   <v>       0.01600000 </v>
   <v>       0.01600000 </v>
   <v>       0.01600000 </v>
   <v>       0.01600000 </v>
   <v>       0.01600000 </v>
   <v>       0.01600000 </v>
   <v>       0.01600000 </v>
   <v>       0.01600000 </v>
   <v>       0.01600000 </v>
   <v>       0.01600000 </v>
   <v>       0.01600000 </v>
   <v>       0.01600000 </v>
   <v>       0.01600000 </v>
   <v>       0.01600000 </v>
   <v>       0.01600000 </v>
   <v>       0.01600000 </v>
   <v>       0.01600000 </v>
   <v>       0.01600000 </v>
   <v>       0.01600000 </v>
   <v>       0.01600000 </v>
   <v>       0.01600000 </v>
   <v>       0.01600000 </v>
   <v>       0.01600000 </v>
   <v>       0.01600000 </v>
   <v>       0.01600000 </v>
   <v>       0.01600000 </v>
   <v>       0.01600000 </v>
   <v>       0.01600000 </v>
   <v>       0.01600000 </v>
   <v>       0.01600000 </v>
   <v>       0.01600000 </v>
   <v>       0.01600000 </v>
   <v>       0.01600000 </v>
   <v>       0.01600000 </v>
   <v>       0.01600000 </v>
   <v>       0.01600000 </v>
   <v>       0.01600000 </v>
   <v>       0.01600000 </v>
   <v>       0.01600000 </v>
   <v>       0.01600000 </v>
   <v>       0.01600000 </v>
   <v>       0.01600000 </v>
  </varray>
 </kpoints>
 <parameters>
  <separator name="general" >
   <i type="string" name="SYSTEM">SQS with 1 vacancy for VFE and VRV</i>
   <i type="logical" name="LCOMPAT"> F  </i>
  </separator>
  <separator name="electronic" >
   <i type="string" name="PREC">normal</i>
   <i name="ENMAX">    600.00000000</i>
   <i name="ENAUG">    455.65900000</i>
   <i name="EDIFF">      0.00010000</i>
   <i type="int" name="IALGO">    38</i>
   <i type="int" name="IWAVPR">    11</i>
   <i type="int" name="NBANDS">   120</i>
   <i name="NELECT">    191.00000000</i>
   <i type="int" name="TURBO">     0</i>
   <i type="int" name="IRESTART">     0</i>
   <i type="int" name="NREBOOT">     0</i>
   <i type="int" name="NMIN">     0</i>
   <i name="EREF">      0.00000000</i>
   <separator name="electronic smearing" >
    <i type="int" name="ISMEAR">     1</i>
    <i name="SIGMA">      0.20000000</i>
    <i name="KSPACING">      0.50000000</i>
    <i type="logical" name="KGAMMA"> T  </i>
   </separator>
   <separator name="electronic projectors" >
    <i type="logical" name="LREAL"> T  </i>
    <v name="ROPT">     -0.00050000     -0.00050000     -0.00050000     -0.00050000     -0.00050000</v>
    <i type="int" name="LMAXPAW">  -100</i>
    <i type="int" name="LMAXMIX">     2</i>
    <i type="logical" name="NLSPLINE"> F  </i>
   </separator>
   <separator name="electronic startup" >
    <i type="int" name="ISTART">     0</i>
    <i type="int" name="ICHARG">     2</i>
    <i type="int" name="INIWAV">     1</i>
   </separator>
   <separator name="electronic spin" >
    <i type="int" name="ISPIN">     1</i>
    <i type="logical" name="LNONCOLLINEAR"> F  </i>
    <v name="MAGMOM">      1.00000000      1.00000000      1.00000000      1.00000000      1.00000000      1.00000000      1.00000000      1.00000000      1.00000000      1.00000000      1.00000000      1.00000000      1.00000000      1.00000000      1.00000000      1.00000000      1.00000000      1.00000000      1.00000000      1.00000000
      1.00000000      1.00000000      1.00000000      1.00000000      1.00000000      1.00000000      1.00000000      1.00000000      1.00000000</v>
    <i name="NUPDOWN">     -1.00000000</i>
    <i type="logical" name="LSORBIT"> F  </i>
    <v name="SAXIS">      0.00000000      0.00000000      1.00000000</v>
    <i type="logical" name="LSPIRAL"> F  </i>
    <v name="QSPIRAL">      0.00000000      0.00000000      0.00000000</v>
    <i type="logical" name="LZEROZ"> F  </i>
   </separator>
   <separator name="electronic exchange-correlation" >
    <i type="logical" name="LASPH"> F  </i>
    <i type="logical" name="LMETAGGA"> F  </i>
   </separator>
   <separator name="electronic convergence" >
    <i type="int" name="NELM">    60</i>
    <i type="int" name="NELMDL">    -5</i>
    <i type="int" name="NELMIN">     2</i>
    <i name="ENINI">    600.00000000</i>
    <separator name="electronic convergence detail" >
     <i type="logical" name="LDIAG"> T  </i>
     <i type="logical" name="LSUBROT"> F  </i>
     <i name="WEIMIN">      0.00100000</i>
     <i name="EBREAK">      0.00000021</i>
     <i name="DEPER">      0.30000000</i>
     <i type="int" name="NRMM">     4</i>
     <i name="TIME">      0.40000000</i>
    </separator>
   </separator>
   <separator name="electronic mixer" >
    <i name="AMIX">      0.40000000</i>
    <i name="BMIX">      1.00000000</i>
    <i name="AMIN">      0.10000000</i>
    <i name="AMIX_MAG">      1.60000000</i>
    <i name="BMIX_MAG">      1.00000000</i>
    <separator name="electronic mixer details" >
     <i type="int" name="IMIX">     4</i>
     <i type="logical" name="MIXFIRST"> F  </i>
     <i type="int" name="MAXMIX">   -45</i>
     <i name="WC">    100.00000000</i>
     <i type="int" name="INIMIX">     1</i>
     <i type="int" name="MIXPRE">     1</i>
     <i type="int" name="MREMOVE">     5</i>
    </separator>
   </separator>
   <separator name="electronic dipolcorrection" >
    <i type="logical" name="LDIPOL"> F  </i>
    <i type="logical" name="LMONO"> F  </i>
    <i type="int" name="IDIPOL">     0</i>
    <i name="EPSILON">      1.00000000</i>
    <v name="DIPOL">   -100.00000000   -100.00000000   -100.00000000</v>
    <i name="EFIELD">      0.00000000</i>
   </separator>
  </separator>
  <separator name="grids" >
   <i type="int" name="NGX">    36</i>
   <i type="int" name="NGY">    50</i>
   <i type="int" name="NGZ">    70</i>
   <i type="int" name="NGXF">    72</i>
   <i type="int" name="NGYF">   100</i>
   <i type="int" name="NGZF">   140</i>
   <i type="logical" name="ADDGRID"> F  </i>
  </separator>
  <separator name="ionic" >
   <i type="int" name="NSW">    50</i>
   <i type="int" name="IBRION">     2</i>
   <i type="int" name="MDALGO">     0</i>
   <i type="int" name="ISIF">     3</i>
   <i name="PSTRESS">      0.00000000</i>
   <i name="EDIFFG">      0.00100000</i>
   <i type="int" name="NFREE">     1</i>
   <i name="POTIM">      0.50000000</i>
   <i name="SMASS">     -3.00000000</i>
   <i name="SCALEE">      1.00000000</i>
  </separator>
  <separator name="ionic md" >
   <i name="TEBEG">      0.00010000</i>
   <i name="TEEND">      0.00010000</i>
   <i type="int" name="NBLOCK">     1</i>
   <i type="int" name="KBLOCK">    50</i>
   <i type="int" name="NPACO">   256</i>
   <i name="APACO">     16.00000000</i>
  </separator>
  <separator name="symmetry" >
   <i type="int" name="ISYM">     0</i>
   <i name="SYMPREC">      0.00001000</i>
  </separator>
  <separator name="dos" >
   <i type="int" name="LORBIT">     0</i>
   <v name="RWIGS">     -1.00000000     -1.00000000     -1.00000000     -1.00000000     -1.00000000</v>
   <i type="int" name="NEDOS">   301</i>
   <i name="EMIN">     10.00000000</i>
   <i name="EMAX">    -10.00000000</i>
   <i name="EFERMI">      0.00000000</i>
  </separator>
  <separator name="writing" >
   <i type="int" name="NWRITE">     2</i>
   <i type="logical" name="LWAVE"> T  </i>
   <i type="logical" name="LDOWNSAMPLE"> F  </i>
   <i type="logical" name="LCHARG"> T  </i>
   <i type="logical" name="LPARD"> F  </i>
   <i type="logical" name="LVTOT"> F  </i>
   <i type="logical" name="LVHAR"> F  </i>
   <i type="logical" name="LELF"> F  </i>
   <i type="logical" name="LOPTICS"> F  </i>
   <v name="STM">      0.00000000      0.00000000      0.00000000      0.00000000      0.00000000      0.00000000      0.00000000</v>
  </separator>
  <separator name="performance" >
   <i type="int" name="NPAR">     8</i>
   <i type="int" name="NSIM">     4</i>
   <i type="int" name="NBLK">    -1</i>
   <i type="logical" name="LPLANE"> T  </i>
   <i type="logical" name="LSCALAPACK"> T  </i>
   <i type="logical" name="LSCAAWARE"> F  </i>
   <i type="logical" name="LSCALU"> F  </i>
   <i type="logical" name="LASYNC"> F  </i>
   <i type="logical" name="LORBITALREAL"> F  </i>
  </separator>
  <separator name="miscellaneous" >
   <i type="int" name="IDIOT">     3</i>
   <i type="int" name="ISPECIAL">     0</i>
   <i type="logical" name="LMUSIC"> F  </i>
   <v name="POMASS">     92.91000000     95.94000000    180.94800000     47.88000000    183.85000000</v>
   <v name="DARWINR">      0.00000000      0.00000000      0.00000000      0.00000000      0.00000000</v>
   <v name="DARWINV">      1.00000000      1.00000000      1.00000000      1.00000000      1.00000000</v>
   <i type="logical" name="LCORR"> T  </i>
  </separator>
  <i type="logical" name="GGA_COMPAT"> T  </i>
  <i type="logical" name="LBERRY"> F  </i>
  <i type="int" name="ICORELEVEL">     0</i>
  <i type="logical" name="LDAU"> F  </i>
  <i type="int" name="I_CONSTRAINED_M">     0</i>
  <separator name="electronic exchange-correlation" >
   <i type="string" name="GGA">PS</i>
   <i type="int" name="VOSKOWN">     0</i>
   <i type="logical" name="LHFCALC"> F  </i>
   <i type="string" name="PRECFOCK"></i>
   <i type="logical" name="LSYMGRAD"> F  </i>
   <i type="logical" name="LHFONE"> F  </i>
   <i type="logical" name="LRHFCALC"> F  </i>
   <i type="logical" name="LTHOMAS"> F  </i>
   <i type="logical" name="LMODELHF"> F  </i>
   <i name="ENCUT4O">     -1.00000000</i>
   <i type="int" name="EXXOEP">     0</i>
   <i type="int" name="FOURORBIT">     0</i>
   <i name="AEXX">      0.00000000</i>
   <i name="HFALPHA">      0.00000000</i>
   <i name="MCALPHA">      0.00000000</i>
   <i name="ALDAX">      1.00000000</i>
   <i name="AGGAX">      1.00000000</i>
   <i name="ALDAC">      1.00000000</i>
   <i name="AGGAC">      1.00000000</i>
   <i type="int" name="NKREDX">     1</i>
   <i type="int" name="NKREDY">     1</i>
   <i type="int" name="NKREDZ">     1</i>
   <i type="logical" name="SHIFTRED"> F  </i>
   <i type="logical" name="ODDONLY"> F  </i>
   <i type="logical" name="EVENONLY"> F  </i>
   <i type="int" name="LMAXFOCK">     0</i>
   <i type="int" name="NMAXFOCKAE">     0</i>
   <i type="logical" name="LFOCKAEDFT"> F  </i>
   <i name="HFSCREEN">      0.00000000</i>
   <i name="HFSCREENC">      0.00000000</i>
   <i type="int" name="NBANDSGWLOW">     0</i>
  </separator>
  <separator name="vdW DFT" >
   <i type="logical" name="LUSE_VDW"> F  </i>
   <i name="Zab_VDW">     -0.84910000</i>
   <i name="PARAM1">      0.12340000</i>
   <i name="PARAM2">      1.00000000</i>
   <i name="PARAM3">      0.00000000</i>
  </separator>
  <separator name="model GW" >
   <i type="int" name="MODEL_GW">     0</i>
   <i name="MODEL_EPS0">     10.07433900</i>
   <i name="MODEL_ALPHA">      1.00000000</i>
  </separator>
  <separator name="linear response parameters" >
   <i type="logical" name="LEPSILON"> F  </i>
   <i type="logical" name="LRPA"> F  </i>
   <i type="logical" name="LNABLA"> F  </i>
   <i type="logical" name="LVEL"> F  </i>
   <i type="int" name="KINTER">     0</i>
   <i name="CSHIFT">      0.10000000</i>
   <i name="OMEGAMAX">     -1.00000000</i>
   <i name="DEG_THRESHOLD">      0.00200000</i>
   <i name="RTIME">     -0.10000000</i>
   <i name="WPLASMAI">      0.00000000</i>
   <v name="DFIELD">      0.00000000      0.00000000      0.00000000</v>
   <v name="WPLASMA">      0.00000000      0.00000000      0.00000000      0.00000000      0.00000000      0.00000000      0.00000000      0.00000000      0.00000000</v>
  </separator>
  <separator name="orbital magnetization" >
   <i type="logical" name="NUCIND"> F  </i>
   <v name="MAGPOS">      0.00000000      0.00000000      0.00000000</v>
   <i type="logical" name="LNICSALL"> T  </i>
   <i type="logical" name="ORBITALMAG"> F  </i>
   <i type="logical" name="LMAGBLOCH"> F  </i>
   <i type="logical" name="LCHIMAG"> F  </i>
   <i type="logical" name="LGAUGE"> T  </i>
   <i type="int" name="MAGATOM">     0</i>
   <v name="MAGDIPOL">      0.00000000      0.00000000      0.00000000</v>
   <v name="AVECCONST">      0.00000000      0.00000000      0.00000000</v>
  </separator>
  <separator name="response functions" >
   <i type="logical" name="LADDER"> F  </i>
   <i type="logical" name="LRPAFORCE"> F  </i>
   <i type="logical" name="LFXC"> F  </i>
   <i type="logical" name="LHARTREE"> T  </i>
   <i type="int" name="IBSE">     0</i>
   <v type="int" name="KPOINT">    -1     0     0     0</v>
   <i type="logical" name="LTCTE"> F  </i>
   <i type="logical" name="LTETE"> F  </i>
   <i type="logical" name="LTRIPLET"> F  </i>
   <i type="logical" name="LFXCEPS"> F  </i>
   <i type="logical" name="LFXHEG"> F  </i>
   <i type="int" name="NATURALO">     2</i>
   <i type="logical" name="L2ORDER"> F  </i>
   <i type="logical" name="LMP2LT"> F  </i>
   <i type="logical" name="LUSEW"> F  </i>
   <i name="ENCUTGW">     -2.00000000</i>
   <i name="ENCUTGWSOFT">     -2.00000000</i>
   <i name="ENCUTLF">     -1.00000000</i>
   <i type="int" name="LMAXMP2">    -1</i>
   <i name="SCISSOR">      0.00000000</i>
   <i type="int" name="NOMEGA">     0</i>
   <i type="int" name="NOMEGAR">     0</i>
   <i type="int" name="NBANDSGW">    -1</i>
   <i type="int" name="NBANDSO">    -1</i>
   <i type="int" name="NBANDSV">    -1</i>
   <i type="int" name="NELM">     1</i>
   <i type="int" name="NELMHF">     1</i>
   <i type="int" name="DIM">     3</i>
   <i type="int" name="ANTIRES">     0</i>
   <i name="OMEGAMAX">    -30.00000000</i>
   <i name="OMEGAMIN">    -30.00000000</i>
   <i name="OMEGATL">   -200.00000000</i>
   <i type="int" name="OMEGAGRID">   140</i>
   <i name="CSHIFT">     -0.10000000</i>
   <i type="logical" name="SELFENERGY"> F  </i>
   <i type="logical" name="LSPECTRAL"> F  </i>
   <i type="logical" name="LSPECTRALGW"> F  </i>
   <i type="logical" name="LSINGLES"> F  </i>
   <i type="logical" name="LFERMIGW"> F  </i>
   <i type="logical" name="ODDONLYGW"> F  </i>
   <i type="logical" name="EVENONLYGW"> F  </i>
   <i type="int" name="NKREDLFX">     1</i>
   <i type="int" name="NKREDLFY">     1</i>
   <i type="int" name="NKREDLFZ">     1</i>
   <i type="int" name="MAXMEM">  2800</i>
   <i type="int" name="TELESCOPE">     0</i>
   <i type="int" name="TAUPAR">     1</i>
   <i type="int" name="OMEGAPAR">    -1</i>
   <i name="LAMBDA">      1.00000000</i>
  </separator>
  <separator name="External order field" >
   <i name="OFIELD_KAPPA">      0.00000000</i>
   <v name="OFIELD_K">      0.00000000      0.00000000      0.00000000</v>
   <i name="OFIELD_Q6_NEAR">      0.00000000</i>
   <i name="OFIELD_Q6_FAR">      0.00000000</i>
   <i name="OFIELD_A">      0.00000000</i>
  </separator>
  <separator name="solvation model" >
   <i type="logical" name="LSOL"> F  </i>
  </separator>
 </parameters>
 <atominfo>
  <atoms>      29 </atoms>
  <types>       5 </types>
  <array name="atoms" >
   <dimension dim="1">ion</dimension>
   <field type="string">element</field>
   <field type="int">atomtype</field>
   <set>
    <rc><c>Nb</c><c>   1</c></rc>
    <rc><c>Nb</c><c>   1</c></rc>
    <rc><c>Nb</c><c>   1</c></rc>
    <rc><c>Nb</c><c>   1</c></rc>
    <rc><c>Nb</c><c>   1</c></rc>
    <rc><c>Mo</c><c>   2</c></rc>
    <rc><c>Mo</c><c>   2</c></rc>
    <rc><c>Mo</c><c>   2</c></rc>
    <rc><c>Mo</c><c>   2</c></rc>
    <rc><c>Mo</c><c>   2</c></rc>
    <rc><c>Mo</c><c>   2</c></rc>
    <rc><c>Ta</c><c>   3</c></rc>
    <rc><c>Ta</c><c>   3</c></rc>
    <rc><c>Ta</c><c>   3</c></rc>
    <rc><c>Ta</c><c>   3</c></rc>
    <rc><c>Ta</c><c>   3</c></rc>
    <rc><c>Ta</c><c>   3</c></rc>
    <rc><c>Ti</c><c>   4</c></rc>
    <rc><c>Ti</c><c>   4</c></rc>
    <rc><c>Ti</c><c>   4</c></rc>
    <rc><c>Ti</c><c>   4</c></rc>
    <rc><c>Ti</c><c>   4</c></rc>
    <rc><c>Ti</c><c>   4</c></rc>
    <rc><c>W </c><c>   5</c></rc>
    <rc><c>W </c><c>   5</c></rc>
    <rc><c>W </c><c>   5</c></rc>
    <rc><c>W </c><c>   5</c></rc>
    <rc><c>W </c><c>   5</c></rc>
    <rc><c>W </c><c>   5</c></rc>
   </set>
  </array>
  <array name="atomtypes" >
   <dimension dim="1">type</dimension>
   <field type="int">atomspertype</field>
   <field type="string">element</field>
   <field>mass</field>
   <field>valence</field>
   <field type="string">pseudopotential</field>
   <set>
    <rc><c>   5</c><c>Nb</c><c>     92.91000000</c><c>     13.00000000</c><c>  PAW_PBE Nb_sv 25May2007               </c></rc>
    <rc><c>   6</c><c>Mo</c><c>     95.94000000</c><c>      6.00000000</c><c>  PAW_PBE Mo 08Apr2002                  </c></rc>
    <rc><c>   6</c><c>Ta</c><c>    180.94800000</c><c>      5.00000000</c><c>  PAW_PBE Ta 17Jan2003                  </c></rc>
    <rc><c>   6</c><c>Ti</c><c>     47.88000000</c><c>      4.00000000</c><c>  PAW_PBE Ti 08Apr2002                  </c></rc>
    <rc><c>   6</c><c>W </c><c>    183.85000000</c><c>      6.00000000</c><c>  PAW_PBE W 08Apr2002                   </c></rc>
   </set>
  </array>
 </atominfo>
 <structure name="initialpos" >
  <crystal>
   <varray name="basis" >
    <v>      -3.19000000      -3.19000000      -3.19000000 </v>
    <v>       1.59500000       1.59500000      -7.97500000 </v>
    <v>       7.97500000      -7.97500000      -1.59500000 </v>
   </varray>
   <i name="volume">    486.92638500 </i>
   <varray name="rec_basis" >
    <v>      -0.13584117      -0.12539185      -0.05224660 </v>
    <v>       0.04179728       0.06269592      -0.10449321 </v>
    <v>       0.06269592      -0.06269592       0.00000000 </v>
   </varray>
  </crystal>
  <varray name="positions" >
   <v>       0.96666667       0.93333333       0.40000000 </v>
   <v>       0.63333333       0.26666667       0.40000000 </v>
   <v>       0.50000000       0.00000000       0.00000000 </v>
   <v>       0.10000000       0.20000000       0.80000000 </v>
   <v>       0.03333333       0.06666667       0.60000000 </v>
   <v>       0.90000000       0.80000000       0.20000000 </v>
   <v>       0.80000000       0.60000000       0.40000000 </v>
   <v>       0.73333333       0.46666667       0.20000000 </v>
   <v>       0.66666667       0.33333333       0.00000000 </v>
   <v>       0.36666667       0.73333333       0.60000000 </v>
   <v>       0.13333333       0.26666667       0.40000000 </v>
   <v>       0.83333333       0.66666667       0.00000000 </v>
   <v>       0.93333333       0.86666667       0.80000000 </v>
   <v>       0.56666667       0.13333333       0.20000000 </v>
   <v>       0.40000000       0.80000000       0.20000000 </v>
   <v>       0.43333333       0.86666667       0.80000000 </v>
   <v>       0.30000000       0.60000000       0.40000000 </v>
   <v>       0.86666667       0.73333333       0.60000000 </v>
   <v>       0.46666667       0.93333333       0.40000000 </v>
   <v>       0.16666667       0.33333333       0.00000000 </v>
   <v>       0.26666667       0.53333333       0.80000000 </v>
   <v>       0.20000000       0.40000000       0.60000000 </v>
   <v>       0.06666667       0.13333333       0.20000000 </v>
   <v>       0.76666667       0.53333333       0.80000000 </v>
   <v>       0.70000000       0.40000000       0.60000000 </v>
   <v>       0.60000000       0.20000000       0.80000000 </v>
   <v>       0.53333333       0.06666667       0.60000000 </v>
   <v>       0.33333333       0.66666667       0.00000000 </v>
   <v>       0.23333333       0.46666667       0.20000000 </v>
  </varray>
 </structure>
 <calculation>
  <scstep>
   <time name="dav">   18.44   18.47</time>
   <time name="total">   18.48   18.51</time>
   <energy>
    <i name="alphaZ">   1248.41475165 </i>
    <i name="ewald"> -10720.03982917 </i>
    <i name="hartreedc">  -2688.08321370 </i>
    <i name="XCdc">   -962.28406948 </i>
    <i name="pawpsdc">  11070.58973812 </i>
    <i name="pawaedc">  -9526.02277447 </i>
    <i name="eentropy">     -0.00094609 </i>
    <i name="bandstr">   1874.31108694 </i>
    <i name="atom">  11656.65998444 </i>
    <i name="e_fr_energy">   1953.54472825 </i>
    <i name="e_wo_entrp">   1953.54567434 </i>
    <i name="e_0_energy">   1953.54504361 </i>
   </energy>
  </scstep>
  <scstep>
   <time name="dav">   18.53   18.55</time>
   <time name="total">   18.53   18.56</time>
   <energy>
    <i name="e_fr_energy">     30.69047078 </i>
    <i name="e_wo_entrp">     30.69210560 </i>
    <i name="e_0_energy">     30.69101572 </i>
   </energy>
  </scstep>
  <scstep>
   <time name="dav">   29.21   29.25</time>
   <time name="total">   29.21   29.25</time>
   <energy>
    <i name="e_fr_energy">   -309.44792873 </i>
    <i name="e_wo_entrp">   -309.44538179 </i>
    <i name="e_0_energy">   -309.44707975 </i>
   </energy>
  </scstep>
  <scstep>
   <time name="dav">   27.01   27.06</time>
   <time name="total">   27.02   27.07</time>
   <energy>
    <i name="e_fr_energy">   -349.93837073 </i>
    <i name="e_wo_entrp">   -349.94587240 </i>
    <i name="e_0_energy">   -349.94087128 </i>
   </energy>
  </scstep>
  <scstep>
   <time name="dav">   30.71   30.75</time>
   <time name="total">   31.31   31.35</time>
   <energy>
    <i name="e_fr_energy">   -354.04974252 </i>
    <i name="e_wo_entrp">   -354.05623784 </i>
    <i name="e_0_energy">   -354.05190763 </i>
   </energy>
  </scstep>
  <scstep>
   <time name="dav">   24.31   24.35</time>
   <time name="total">   24.94   24.97</time>
   <energy>
    <i name="e_fr_energy">   -344.09687987 </i>
    <i name="e_wo_entrp">   -344.08814650 </i>
    <i name="e_0_energy">   -344.09396875 </i>
   </energy>
  </scstep>
  <scstep>
   <time name="dav">   25.19   25.23</time>
   <time name="total">   25.82   25.87</time>
   <energy>
    <i name="e_fr_energy">   -361.02388992 </i>
    <i name="e_wo_entrp">   -361.02256166 </i>
    <i name="e_0_energy">   -361.02344717 </i>
   </energy>
  </scstep>
  <scstep>
   <time name="dav">   26.13   26.17</time>
   <time name="total">   26.75   26.79</time>
   <energy>
    <i name="e_fr_energy">   -347.83566821 </i>
    <i name="e_wo_entrp">   -347.82943873 </i>
    <i name="e_0_energy">   -347.83359172 </i>
   </energy>
  </scstep>
  <scstep>
   <time name="dav">   24.25   24.28</time>
   <time name="total">   24.87   24.91</time>
   <energy>
    <i name="e_fr_energy">   -336.01249496 </i>
    <i name="e_wo_entrp">   -336.02503876 </i>
    <i name="e_0_energy">   -336.01667623 </i>
   </energy>
  </scstep>
  <scstep>
   <time name="dav">   25.56   25.63</time>
   <time name="total">   26.20   26.28</time>
   <energy>
    <i name="e_fr_energy">   -333.00809373 </i>
    <i name="e_wo_entrp">   -333.00422435 </i>
    <i name="e_0_energy">   -333.00680394 </i>
   </energy>
  </scstep>
  <scstep>
   <time name="dav">   25.86   25.93</time>
   <time name="total">   26.50   26.57</time>
   <energy>
    <i name="e_fr_energy">   -331.87531052 </i>
    <i name="e_wo_entrp">   -331.86033460 </i>
    <i name="e_0_energy">   -331.87031854 </i>
   </energy>
  </scstep>
  <scstep>
   <time name="dav">   25.45   25.53</time>
   <time name="total">   26.08   26.16</time>
   <energy>
    <i name="e_fr_energy">   -331.73329708 </i>
    <i name="e_wo_entrp">   -331.71333300 </i>
    <i name="e_0_energy">   -331.72664239 </i>
   </energy>
  </scstep>
  <scstep>
   <time name="dav">   24.79   24.85</time>
   <time name="total">   25.42   25.51</time>
   <energy>
    <i name="e_fr_energy">   -331.77211590 </i>
    <i name="e_wo_entrp">   -331.75497786 </i>
    <i name="e_0_energy">   -331.76640322 </i>
   </energy>
  </scstep>
  <scstep>
   <time name="dav">   25.15   25.22</time>
   <time name="total">   25.78   25.85</time>
   <energy>
    <i name="e_fr_energy">   -331.66547106 </i>
    <i name="e_wo_entrp">   -331.64266237 </i>
    <i name="e_0_energy">   -331.65786816 </i>
   </energy>
  </scstep>
  <scstep>
   <time name="dav">   26.38   26.45</time>
   <time name="total">   27.00   27.08</time>
   <energy>
    <i name="e_fr_energy">   -331.65456947 </i>
    <i name="e_wo_entrp">   -331.63215830 </i>
    <i name="e_0_energy">   -331.64709908 </i>
   </energy>
  </scstep>
  <scstep>
   <time name="dav">   25.82   25.89</time>
   <time name="total">   26.45   26.53</time>
   <energy>
    <i name="e_fr_energy">   -331.65346304 </i>
    <i name="e_wo_entrp">   -331.63044266 </i>
    <i name="e_0_energy">   -331.64578958 </i>
   </energy>
  </scstep>
  <scstep>
   <time name="dav">   25.63   25.72</time>
   <time name="total">   26.25   26.34</time>
   <energy>
    <i name="e_fr_energy">   -331.65148334 </i>
    <i name="e_wo_entrp">   -331.62862583 </i>
    <i name="e_0_energy">   -331.64386417 </i>
   </energy>
  </scstep>
  <scstep>
   <time name="dav">   24.40   24.47</time>
   <time name="total">   25.03   25.10</time>
   <energy>
    <i name="e_fr_energy">   -331.64629568 </i>
    <i name="e_wo_entrp">   -331.62379276 </i>
    <i name="e_0_energy">   -331.63879471 </i>
   </energy>
  </scstep>
  <scstep>
   <time name="dav">   24.82   24.89</time>
   <time name="total">   25.45   25.53</time>
   <energy>
    <i name="e_fr_energy">   -331.64610718 </i>
    <i name="e_wo_entrp">   -331.62394574 </i>
    <i name="e_0_energy">   -331.63872003 </i>
   </energy>
  </scstep>
  <scstep>
   <time name="dav">   23.99   24.06</time>
   <time name="total">   24.61   24.69</time>
   <energy>
    <i name="e_fr_energy">   -331.64572510 </i>
    <i name="e_wo_entrp">   -331.62348550 </i>
    <i name="e_0_energy">   -331.63831190 </i>
   </energy>
  </scstep>
  <scstep>
   <time name="dav">   17.59   17.64</time>
   <time name="total">   17.62   17.67</time>
   <energy>
    <i name="alphaZ">   1248.41475165 </i>
    <i name="ewald"> -10720.03982917 </i>
    <i name="hartreedc">  -2545.95051783 </i>
    <i name="XCdc">   -955.57722706 </i>
    <i name="pawpsdc">  19704.31937649 </i>
    <i name="pawaedc"> -18165.93436478 </i>
    <i name="eentropy">     -0.02222799 </i>
    <i name="bandstr">   -553.51561978 </i>
    <i name="atom">  11656.65998444 </i>
    <i name="e_fr_energy">   -331.64567402 </i>
    <i name="e_wo_entrp">   -331.62344603 </i>
    <i name="e_0_energy">   -331.63826469 </i>
   </energy>
  </scstep>
  <structure>
   <crystal>
    <varray name="basis" >
     <v>      -3.19000000      -3.19000000      -3.19000000 </v>
     <v>       1.59500000       1.59500000      -7.97500000 </v>
     <v>       7.97500000      -7.97500000      -1.59500000 </v>
    </varray>
    <i name="volume">    486.92638500 </i>
    <varray name="rec_basis" >
     <v>      -0.13584117      -0.12539185      -0.05224660 </v>
     <v>       0.04179728       0.06269592      -0.10449321 </v>
     <v>       0.06269592      -0.06269592       0.00000000 </v>
    </varray>
   </crystal>
   <varray name="positions" >
    <v>       0.96666667       0.93333333       0.40000000 </v>
    <v>       0.63333333       0.26666667       0.40000000 </v>
    <v>       0.50000000       0.00000000       0.00000000 </v>
    <v>       0.10000000       0.20000000       0.80000000 </v>
    <v>       0.03333333       0.06666667       0.60000000 </v>
    <v>       0.90000000       0.80000000       0.20000000 </v>
    <v>       0.80000000       0.60000000       0.40000000 </v>
    <v>       0.73333333       0.46666667       0.20000000 </v>
    <v>       0.66666667       0.33333333       0.00000000 </v>
    <v>       0.36666667       0.73333333       0.60000000 </v>
    <v>       0.13333333       0.26666667       0.40000000 </v>
    <v>       0.83333333       0.66666667       0.00000000 </v>
    <v>       0.93333333       0.86666667       0.80000000 </v>
    <v>       0.56666667       0.13333333       0.20000000 </v>
    <v>       0.40000000       0.80000000       0.20000000 </v>
    <v>       0.43333333       0.86666667       0.80000000 </v>
    <v>       0.30000000       0.60000000       0.40000000 </v>
    <v>       0.86666667       0.73333333       0.60000000 </v>
    <v>       0.46666667       0.93333333       0.40000000 </v>
    <v>       0.16666667       0.33333333       0.00000000 </v>
    <v>       0.26666667       0.53333333       0.80000000 </v>
    <v>       0.20000000       0.40000000       0.60000000 </v>
    <v>       0.06666667       0.13333333       0.20000000 </v>
    <v>       0.76666667       0.53333333       0.80000000 </v>
    <v>       0.70000000       0.40000000       0.60000000 </v>
    <v>       0.60000000       0.20000000       0.80000000 </v>
    <v>       0.53333333       0.06666667       0.60000000 </v>
    <v>       0.33333333       0.66666667       0.00000000 </v>
    <v>       0.23333333       0.46666667       0.20000000 </v>
   </varray>
  </structure>
  <varray name="forces" >
   <v>      -0.29576029       0.67384100       0.26478790 </v>
   <v>      -0.01104323      -0.11618528       0.18851992 </v>
   <v>      -0.19292983       0.19773614      -0.34523249 </v>
   <v>       0.72322880      -0.15764881       0.07139127 </v>
   <v>      -0.36051636       0.04527686      -0.20329087 </v>
   <v>       0.05554516      -0.21298562      -0.04336705 </v>
   <v>      -0.46357360      -0.18448536       0.54899529 </v>
   <v>      -0.20915302       0.20949760       0.02186216 </v>
   <v>      -0.04571165       0.34369998      -0.10705024 </v>
   <v>      -0.00499796      -0.21680398       0.42190689 </v>
   <v>       0.06118959       0.29772623      -0.43802993 </v>
   <v>       0.24026200      -0.47622196       0.32343560 </v>
   <v>       0.89862565      -0.29375511      -0.72869526 </v>
   <v>      -0.27362854       0.41632496       0.09312062 </v>
   <v>      -0.65342862      -0.26316116       0.58443645 </v>
   <v>      -0.97823328      -0.22786362       0.66051051 </v>
   <v>       0.27499267      -0.12297141      -0.32441028 </v>
   <v>      -0.07010445       0.41575007       0.32326647 </v>
   <v>       0.40617071      -0.31847564       0.10225767 </v>
   <v>       0.11971009      -0.40335861      -0.76904364 </v>
   <v>      -0.17954146      -0.06757538      -0.14440286 </v>
   <v>      -0.47460405       0.25640915       0.42978474 </v>
   <v>       0.25491036       0.08987151      -0.44297764 </v>
   <v>      -0.10899772      -0.20866706       0.54977037 </v>
   <v>       0.68552489      -0.01261529      -0.78833777 </v>
   <v>       0.08068677       0.44997698      -0.08873387 </v>
   <v>       0.19211010      -0.40365322      -0.40044451 </v>
   <v>       0.29056211      -0.04592285       0.28286622 </v>
   <v>       0.03870516       0.33623988      -0.04289566 </v>
  </varray>
  <varray name="stress" >
   <v>     -33.32794483       0.62510848       3.16653684 </v>
   <v>       0.62510847     -35.09475931      -8.21915567 </v>
   <v>       3.16653687      -8.21915580     -34.17013181 </v>
  </varray>
  <energy>
   <i name="e_fr_energy">   -331.64567402 </i>
   <i name="e_wo_entrp">   -331.63826469 </i>
   <i name="e_0_energy">     -0.02222799 </i>
  </energy>
  <time name="totalsc">  548.25  550.06</time>
 </calculation>
 <calculation>
  <scstep>
   <time name="dav">   23.38   23.42</time>
   <time name="total">   24.03   24.07</time>
   <energy>
    <i name="alphaZ">   1315.50081496 </i>
    <i name="ewald"> -10931.02067997 </i>
    <i name="hartreedc">  -2568.71897996 </i>
    <i name="XCdc">   -949.86037366 </i>
    <i name="pawpsdc">  19704.53946182 </i>
    <i name="pawaedc"> -18166.09379778 </i>
    <i name="eentropy">     -0.01993236 </i>
    <i name="bandstr">   -394.56332504 </i>
    <i name="atom">  11656.65998444 </i>
    <i name="e_fr_energy">   -333.57682755 </i>
    <i name="e_wo_entrp">   -333.55689519 </i>
    <i name="e_0_energy">   -333.57018343 </i>
   </energy>
  </scstep>
  <scstep>
   <time name="dav">   27.38   27.43</time>
   <time name="total">   28.00   28.06</time>
   <energy>
    <i name="e_fr_energy">   -333.84394394 </i>
    <i name="e_wo_entrp">   -333.84525442 </i>
    <i name="e_0_energy">   -333.84438077 </i>
   </energy>
  </scstep>
  <scstep>
   <time name="dav">   25.73   25.77</time>
   <time name="total">   26.36   26.41</time>
   <energy>
    <i name="e_fr_energy">   -332.70942244 </i>
    <i name="e_wo_entrp">   -332.69760089 </i>
    <i name="e_0_energy">   -332.70548193 </i>
   </energy>
  </scstep>
  <scstep>
   <time name="dav">   27.25   27.29</time>
   <time name="total">   27.88   27.92</time>
   <energy>
    <i name="e_fr_energy">   -332.29761453 </i>
    <i name="e_wo_entrp">   -332.29045898 </i>
    <i name="e_0_energy">   -332.29522935 </i>
   </energy>
  </scstep>
  <scstep>
   <time name="dav">   26.35   26.39</time>
   <time name="total">   26.98   27.02</time>
   <energy>
    <i name="e_fr_energy">   -331.85311846 </i>
    <i name="e_wo_entrp">   -331.83454622 </i>
    <i name="e_0_energy">   -331.84692771 </i>
   </energy>
  </scstep>
  <scstep>
   <time name="dav">   27.88   27.92</time>
   <time name="total">   28.52   28.60</time>
   <energy>
    <i name="e_fr_energy">   -331.70567117 </i>
    <i name="e_wo_entrp">   -331.68723689 </i>
    <i name="e_0_energy">   -331.69952641 </i>
   </energy>
  </scstep>
  <scstep>
   <time name="dav">   27.97   28.01</time>
   <time name="total">   28.60   28.64</time>
   <energy>
    <i name="e_fr_energy">   -331.70799174 </i>
    <i name="e_wo_entrp">   -331.68867774 </i>
    <i name="e_0_energy">   -331.70155374 </i>
   </energy>
  </scstep>
  <scstep>
   <time name="dav">   26.91   26.95</time>
   <time name="total">   27.54   27.58</time>
   <energy>
    <i name="e_fr_energy">   -331.69794624 </i>
    <i name="e_wo_entrp">   -331.67881950 </i>
    <i name="e_0_energy">   -331.69157066 </i>
   </energy>
  </scstep>
  <scstep>
   <time name="dav">   25.98   26.01</time>
   <time name="total">   26.61   26.65</time>
   <energy>
    <i name="e_fr_energy">   -331.70110119 </i>
    <i name="e_wo_entrp">   -331.68121308 </i>
    <i name="e_0_energy">   -331.69447182 </i>
   </energy>
  </scstep>
  <scstep>
   <time name="dav">   27.19   27.23</time>
   <time name="total">   27.82   27.86</time>
   <energy>
    <i name="e_fr_energy">   -331.70799860 </i>
    <i name="e_wo_entrp">   -331.68840486 </i>
    <i name="e_0_energy">   -331.70146735 </i>
   </energy>
  </scstep>
  <scstep>
   <time name="dav">   26.83   26.87</time>
   <time name="total">   27.46   27.50</time>
   <energy>
    <i name="e_fr_energy">   -331.70700224 </i>
    <i name="e_wo_entrp">   -331.68723766 </i>
    <i name="e_0_energy">   -331.70041405 </i>
   </energy>
  </scstep>
  <scstep>
   <time name="dav">   27.69   27.73</time>
   <time name="total">   28.32   28.38</time>
   <energy>
    <i name="e_fr_energy">   -331.70686693 </i>
    <i name="e_wo_entrp">   -331.68712646 </i>
    <i name="e_0_energy">   -331.70028678 </i>
   </energy>
  </scstep>
  <scstep>
   <time name="dav">   26.27   26.31</time>
   <time name="total">   26.89   26.94</time>
   <energy>
    <i name="e_fr_energy">   -331.70717982 </i>
    <i name="e_wo_entrp">   -331.68735456 </i>
    <i name="e_0_energy">   -331.70057140 </i>
   </energy>
  </scstep>
  <scstep>
   <time name="dav">   24.55   24.59</time>
   <time name="total">   25.18   25.22</time>
   <energy>
    <i name="e_fr_energy">   -331.70713591 </i>
    <i name="e_wo_entrp">   -331.68736295 </i>
    <i name="e_0_energy">   -331.70054492 </i>
   </energy>
  </scstep>
  <scstep>
   <time name="dav">   16.18   16.21</time>
   <time name="total">   16.22   16.25</time>
   <energy>
    <i name="alphaZ">   1315.50081496 </i>
    <i name="ewald"> -10931.02067997 </i>
    <i name="hartreedc">  -2488.85806517 </i>
    <i name="XCdc">   -951.93807022 </i>
    <i name="pawpsdc">  21463.60896899 </i>
    <i name="pawaedc"> -19926.16801625 </i>
    <i name="eentropy">     -0.01981013 </i>
    <i name="bandstr">   -469.47221751 </i>
    <i name="atom">  11656.65998444 </i>
    <i name="e_fr_energy">   -331.70709087 </i>
    <i name="e_wo_entrp">   -331.68728074 </i>
    <i name="e_0_energy">   -331.70048749 </i>
   </energy>
  </scstep>
  <structure>
   <crystal>
    <varray name="basis" >
     <v>      -3.14236429      -3.12115211      -3.12674212 </v>
     <v>       1.55586131       1.60034326      -7.84130166 </v>
     <v>       7.83554905      -7.82435092      -1.52153876 </v>
    </varray>
    <i name="volume">    462.09479697 </i>
    <varray name="rec_basis" >
     <v>      -0.13804111      -0.12783871      -0.05348074 </v>
     <v>       0.04266608       0.06336572      -0.10613169 </v>
     <v>       0.06379158      -0.06385054      -0.00037391 </v>
    </varray>
   </crystal>
   <varray name="positions" >
    <v>       0.96386126       0.93344026       0.39706733 </v>
    <v>       0.63363336       0.26534265       0.40031801 </v>
    <v>       0.50093835       0.00194938      -0.00118162 </v>
    <v>       0.09603415       0.20062161       0.80266432 </v>
    <v>       0.03593442       0.06710146       0.59877263 </v>
    <v>       0.90103370       0.79968642       0.20081220 </v>
    <v>       0.80277020       0.59573975       0.39915586 </v>
    <v>       0.73338158       0.46676837       0.19873374 </v>
    <v>       0.66515693       0.33482036      -0.00117782 </v>
    <v>       0.36694750       0.73054066       0.60064063 </v>
    <v>       0.13223538       0.26989868       0.39928457 </v>
    <v>       0.83382437       0.66408030       0.00216709 </v>
    <v>       0.93105801       0.87126355       0.80360650 </v>
    <v>       0.56570669       0.13357138       0.19791315 </v>
    <v>       0.40440098       0.79494030       0.19881959 </v>
    <v>       0.43945760       0.86067530       0.79773042 </v>
    <v>       0.29975944       0.60181792       0.40120369 </v>
    <v>       0.86379632       0.73281986       0.59853048 </v>
    <v>       0.46567369       0.93267359       0.40219178 </v>
    <v>       0.17026057       0.33623148       0.00158208 </v>
    <v>       0.26861601       0.53349485       0.79966135 </v>
    <v>       0.20047588       0.39765198       0.59778896 </v>
    <v>       0.06556903       0.13635222       0.20049918 </v>
    <v>       0.76725754       0.52971100       0.80030146 </v>
    <v>       0.69757085       0.40531818       0.60211161 </v>
    <v>       0.59697287       0.20197102       0.79888304 </v>
    <v>       0.53552549       0.06785180       0.60180196 </v>
    <v>       0.33099401       0.66568773       0.00101774 </v>
    <v>       0.23115381       0.46797795       0.19910007 </v>
   </varray>
  </structure>
  <varray name="forces" >
   <v>      -0.15169708       0.42565941       0.13592199 </v>
   <v>      -0.04485881       0.04441148       0.07669481 </v>
   <v>      -0.11903676       0.19039365      -0.08028599 </v>
   <v>       0.46412862      -0.36480079       0.24173313 </v>
   <v>      -0.12148009      -0.03728763      -0.13334803 </v>
   <v>      -0.13194161       0.11566432      -0.20182465 </v>
   <v>      -0.11549576      -0.05984747       0.12160966 </v>
   <v>      -0.12595086      -0.01313218       0.21278150 </v>
   <v>      -0.18204658      -0.05905572       0.11081518 </v>
   <v>       0.02432507      -0.02850198       0.22222084 </v>
   <v>       0.02188224       0.05476747      -0.07708317 </v>
   <v>       0.10956167      -0.13493916       0.00178456 </v>
   <v>       0.52505072      -0.56355387      -0.60159914 </v>
   <v>      -0.22992916       0.19351765       0.14011841 </v>
   <v>      -0.05226398      -0.05897499      -0.03798375 </v>
   <v>      -0.25983875      -0.10436014       0.25215509 </v>
   <v>       0.10087089      -0.13325587      -0.05851096 </v>
   <v>      -0.07478495       0.19613927       0.12573879 </v>
   <v>       0.19146937      -0.14499485       0.11449572 </v>
   <v>       0.03453369      -0.23634672      -0.34968074 </v>
   <v>      -0.02374575       0.07804373       0.00302023 </v>
   <v>      -0.18014387       0.19748275       0.19857991 </v>
   <v>      -0.02682779       0.19305993      -0.21120743 </v>
   <v>      -0.13375234      -0.20039044       0.08873739 </v>
   <v>       0.17995906      -0.00800762      -0.19208668 </v>
   <v>       0.24750350       0.25593712      -0.05395946 </v>
   <v>      -0.02124831      -0.12788399      -0.10609962 </v>
   <v>       0.11505912       0.30697983       0.00980555 </v>
   <v>      -0.01930149       0.02327682       0.04745685 </v>
  </varray>
  <varray name="stress" >
   <v>      86.82953896      -0.13003957       1.48920722 </v>
   <v>      -0.13003970      84.93363056      -4.40004639 </v>
   <v>       1.48920721      -4.40004632      88.05035843 </v>
  </varray>
  <energy>
   <i name="e_fr_energy">   -331.70709087 </i>
   <i name="e_wo_entrp">   -331.70048749 </i>
   <i name="e_0_energy">     -0.01981013 </i>
  </energy>
  <time name="totalsc">  414.62  415.36</time>
 </calculation>
 <calculation>
  <scstep>
   <time name="dav">   22.57   22.63</time>
   <time name="total">   23.19   23.37</time>
   <energy>
    <i name="alphaZ">   1283.57562334 </i>
    <i name="ewald"> -10831.85097807 </i>
    <i name="hartreedc">  -2478.67448243 </i>
    <i name="XCdc">   -954.58275166 </i>
    <i name="pawpsdc">  21463.41494984 </i>
    <i name="pawaedc"> -19925.97356396 </i>
    <i name="eentropy">     -0.01835042 </i>
    <i name="bandstr">   -544.90696455 </i>
    <i name="atom">  11656.65998444 </i>
    <i name="e_fr_energy">   -332.35653347 </i>
    <i name="e_wo_entrp">   -332.33818306 </i>
    <i name="e_0_energy">   -332.35041667 </i>
   </energy>
  </scstep>
  <scstep>
   <time name="dav">   29.05   29.12</time>
   <time name="total">   29.67   29.74</time>
   <energy>
    <i name="e_fr_energy">   -332.43853055 </i>
    <i name="e_wo_entrp">   -332.41842963 </i>
    <i name="e_0_energy">   -332.43183024 </i>
   </energy>
  </scstep>
  <scstep>
   <time name="dav">   26.06   26.09</time>
   <time name="total">   26.70   26.75</time>
   <energy>
    <i name="e_fr_energy">   -332.29536943 </i>
    <i name="e_wo_entrp">   -332.28497020 </i>
    <i name="e_0_energy">   -332.29190302 </i>
   </energy>
  </scstep>
  <scstep>
   <time name="dav">   27.50   27.54</time>
   <time name="total">   28.13   28.16</time>
   <energy>
    <i name="e_fr_energy">   -332.11678780 </i>
    <i name="e_wo_entrp">   -332.09649430 </i>
    <i name="e_0_energy">   -332.11002330 </i>
   </energy>
  </scstep>
  <scstep>
   <time name="dav">   26.06   26.10</time>
   <time name="total">   26.69   26.72</time>
   <energy>
    <i name="e_fr_energy">   -331.98959982 </i>
    <i name="e_wo_entrp">   -331.96939453 </i>
    <i name="e_0_energy">   -331.98286473 </i>
   </energy>
  </scstep>
  <scstep>
   <time name="dav">   26.60   26.64</time>
   <time name="total">   27.24   27.31</time>
   <energy>
    <i name="e_fr_energy">   -331.95607121 </i>
    <i name="e_wo_entrp">   -331.93431391 </i>
    <i name="e_0_energy">   -331.94881878 </i>
   </energy>
  </scstep>
  <scstep>
   <time name="dav">   28.04   28.08</time>
   <time name="total">   28.66   28.71</time>
   <energy>
    <i name="e_fr_energy">   -331.95209409 </i>
    <i name="e_wo_entrp">   -331.93071285 </i>
    <i name="e_0_energy">   -331.94496701 </i>
   </energy>
  </scstep>
  <scstep>
   <time name="dav">   26.32   26.36</time>
   <time name="total">   26.94   26.99</time>
   <energy>
    <i name="e_fr_energy">   -331.94989812 </i>
    <i name="e_wo_entrp">   -331.92778913 </i>
    <i name="e_0_energy">   -331.94252845 </i>
   </energy>
  </scstep>
  <scstep>
   <time name="dav">   25.88   25.92</time>
   <time name="total">   26.51   26.55</time>
   <energy>
    <i name="e_fr_energy">   -331.95017893 </i>
    <i name="e_wo_entrp">   -331.92853736 </i>
    <i name="e_0_energy">   -331.94296507 </i>
   </energy>
  </scstep>
  <scstep>
   <time name="dav">   26.13   26.17</time>
   <time name="total">   26.76   26.80</time>
   <energy>
    <i name="e_fr_energy">   -331.95120359 </i>
    <i name="e_wo_entrp">   -331.92940356 </i>
    <i name="e_0_energy">   -331.94393691 </i>
   </energy>
  </scstep>
  <scstep>
   <time name="dav">   26.53   26.57</time>
   <time name="total">   27.16   27.19</time>
   <energy>
    <i name="e_fr_energy">   -331.95146166 </i>
    <i name="e_wo_entrp">   -331.92971853 </i>
    <i name="e_0_energy">   -331.94421395 </i>
   </energy>
  </scstep>
  <scstep>
   <time name="dav">   27.97   28.01</time>
   <time name="total">   28.60   28.65</time>
   <energy>
    <i name="e_fr_energy">   -331.95151168 </i>
    <i name="e_wo_entrp">   -331.92977909 </i>
    <i name="e_0_energy">   -331.94426748 </i>
   </energy>
  </scstep>
  <scstep>
   <time name="dav">   25.25   25.28</time>
   <time name="total">   25.87   25.90</time>
   <energy>
    <i name="e_fr_energy">   -331.95154651 </i>
    <i name="e_wo_entrp">   -331.92981249 </i>
    <i name="e_0_energy">   -331.94430184 </i>
   </energy>
  </scstep>
  <scstep>
   <time name="dav">   18.44   18.47</time>
   <time name="total">   18.47   18.50</time>
   <energy>
    <i name="alphaZ">   1283.57562334 </i>
    <i name="ewald"> -10831.85097807 </i>
    <i name="hartreedc">  -2515.51489798 </i>
    <i name="XCdc">   -953.62646889 </i>
    <i name="pawpsdc">  20599.63186206 </i>
    <i name="pawaedc"> -19061.59594385 </i>
    <i name="eentropy">     -0.02177013 </i>
    <i name="bandstr">   -509.20893586 </i>
    <i name="atom">  11656.65998444 </i>
    <i name="e_fr_energy">   -331.95152495 </i>
    <i name="e_wo_entrp">   -331.92975482 </i>
    <i name="e_0_energy">   -331.94426824 </i>
   </energy>
  </scstep>
  <structure>
   <crystal>
    <varray name="basis" >
     <v>      -3.16461450      -3.15331035      -3.15628931 </v>
     <v>       1.57414264       1.59784747      -7.90375096 </v>
     <v>       7.90068534      -7.89471776      -1.55585185 </v>
    </varray>
    <i name="volume">    473.58805430 </i>
    <varray name="rec_basis" >
     <v>      -0.13700493      -0.12668376      -0.05289724 </v>
     <v>       0.04225598       0.06305167      -0.10535961 </v>
     <v>       0.06327492      -0.06330560      -0.00019597 </v>
    </varray>
   </crystal>
   <varray name="positions" >
    <v>       0.96520150       0.93339571       0.39846422 </v>
    <v>       0.63349151       0.26597002       0.40016831 </v>
    <v>       0.50049179       0.00102689      -0.00062269 </v>
    <v>       0.09791571       0.20032212       0.80139848 </v>
    <v>       0.03469845       0.06689724       0.59935429 </v>
    <v>       0.90054067       0.79983341       0.20042555 </v>
    <v>       0.80145838       0.59776180       0.39956142 </v>
    <v>       0.73336083       0.46672261       0.19933600 </v>
    <v>       0.66587583       0.33411754      -0.00061850 </v>
    <v>       0.36681586       0.73186404       0.60033944 </v>
    <v>       0.13275549       0.26836717       0.39962128 </v>
    <v>       0.83358966       0.66530280       0.00113926 </v>
    <v>       0.93212888       0.86907632       0.80188597 </v>
    <v>       0.56616707       0.13346270       0.19890627 </v>
    <v>       0.40231467       0.79734198       0.19938516 </v>
    <v>       0.43655432       0.86352079       0.79881431 </v>
    <v>       0.29986964       0.60095328       0.40062873 </v>
    <v>       0.86516547       0.73306673       0.59923215 </v>
    <v>       0.46614292       0.93298238       0.40115057 </v>
    <v>       0.16854420       0.33485313       0.00082318 </v>
    <v>       0.26768885       0.53341861       0.79982099 </v>
    <v>       0.20025616       0.39877001       0.59884373 </v>
    <v>       0.06608700       0.13491942       0.20025833 </v>
    <v>       0.76697993       0.53142854       0.80016255 </v>
    <v>       0.69871685       0.40279177       0.60110140 </v>
    <v>       0.59841316       0.20103872       0.79941373 </v>
    <v>       0.53447768       0.06728578       0.60094166 </v>
    <v>       0.33210642       0.66615043       0.00053638 </v>
    <v>       0.23219111       0.46735805       0.19952785 </v>
   </varray>
  </structure>
  <varray name="forces" >
   <v>      -0.23902827       0.56350437       0.20948427 </v>
   <v>      -0.02787272      -0.03270519       0.13413927 </v>
   <v>      -0.16201659       0.19513396      -0.21667638 </v>
   <v>       0.61020263      -0.26111919       0.16412034 </v>
   <v>      -0.24004861       0.00183831      -0.17159021 </v>
   <v>      -0.03694715      -0.05294782      -0.12579170 </v>
   <v>      -0.29062486      -0.13125818       0.34161981 </v>
   <v>      -0.17226871       0.10361112       0.10724916 </v>
   <v>      -0.11745155       0.14555126       0.00381850 </v>
   <v>       0.00045938      -0.13669301       0.33478136 </v>
   <v>       0.04910602       0.18465297      -0.26771612 </v>
   <v>       0.16541602      -0.32678932       0.15812806 </v>
   <v>       0.71644561      -0.41745290      -0.66553880 </v>
   <v>      -0.25977432       0.29658474       0.11154641 </v>
   <v>      -0.34299736      -0.14499748       0.27177978 </v>
   <v>      -0.63242904      -0.16223128       0.44974701 </v>
   <v>       0.19948427      -0.13482338      -0.17610522 </v>
   <v>      -0.07134135       0.30596950       0.23219386 </v>
   <v>       0.30307704      -0.24105816       0.11124633 </v>
   <v>       0.08920441      -0.33089330      -0.57048167 </v>
   <v>      -0.11352427       0.00563663      -0.07352436 </v>
   <v>      -0.32788885       0.23485606       0.30897319 </v>
   <v>       0.11838136       0.14484312      -0.32351265 </v>
   <v>      -0.13150213      -0.19098422       0.34365320 </v>
   <v>       0.45143707      -0.01447526      -0.51714102 </v>
   <v>       0.15369065       0.35048591      -0.07365225 </v>
   <v>       0.09091573      -0.27704676      -0.25877739 </v>
   <v>       0.21214261       0.12484138       0.15077294 </v>
   <v>       0.00575300       0.19796612       0.00725429 </v>
  </varray>
  <varray name="stress" >
   <v>      27.16459412       0.30070234       2.51810581 </v>
   <v>       0.30070231      25.28721815      -6.15975498 </v>
   <v>       2.51810582      -6.15975500      27.13105408 </v>
  </varray>
  <energy>
   <i name="e_fr_energy">   -331.95152495 </i>
   <i name="e_wo_entrp">   -331.94426824 </i>
   <i name="e_0_energy">     -0.02177013 </i>
  </energy>
  <time name="totalsc">  388.74  389.81</time>
 </calculation>
 <calculation>
  <scstep>
   <time name="dav">   18.99   19.04</time>
   <time name="total">   19.63   19.69</time>
   <energy>
    <i name="alphaZ">   1270.34381905 </i>
    <i name="ewald"> -10819.88477066 </i>
    <i name="hartreedc">  -2481.23894678 </i>
    <i name="XCdc">   -954.87304795 </i>
    <i name="pawpsdc">  20600.10314791 </i>
    <i name="pawaedc"> -19062.11140011 </i>
    <i name="eentropy">     -0.01438951 </i>
    <i name="bandstr">   -541.06400594 </i>
    <i name="atom">  11656.65998444 </i>
    <i name="e_fr_energy">   -332.07960956 </i>
    <i name="e_wo_entrp">   -332.06522005 </i>
    <i name="e_0_energy">   -332.07481305 </i>
   </energy>
  </scstep>
  <scstep>
   <time name="dav">   26.66   26.73</time>
   <time name="total">   27.28   27.35</time>
   <energy>
    <i name="e_fr_energy">   -332.52345678 </i>
    <i name="e_wo_entrp">   -332.50708268 </i>
    <i name="e_0_energy">   -332.51799874 </i>
   </energy>
  </scstep>
  <scstep>
   <time name="dav">   26.17   26.23</time>
   <time name="total">   26.80   26.89</time>
   <energy>
    <i name="e_fr_energy">   -332.40088762 </i>
    <i name="e_wo_entrp">   -332.38415080 </i>
    <i name="e_0_energy">   -332.39530868 </i>
   </energy>
  </scstep>
  <scstep>
   <time name="dav">   26.74   26.79</time>
   <time name="total">   27.36   27.41</time>
   <energy>
    <i name="e_fr_energy">   -332.33340694 </i>
    <i name="e_wo_entrp">   -332.31860135 </i>
    <i name="e_0_energy">   -332.32847174 </i>
   </energy>
  </scstep>
  <scstep>
   <time name="dav">   25.72   25.76</time>
   <time name="total">   26.35   26.38</time>
   <energy>
    <i name="e_fr_energy">   -332.31818045 </i>
    <i name="e_wo_entrp">   -332.29969291 </i>
    <i name="e_0_energy">   -332.31201793 </i>
   </energy>
  </scstep>
  <scstep>
   <time name="dav">   27.16   27.20</time>
   <time name="total">   27.80   27.86</time>
   <energy>
    <i name="e_fr_energy">   -332.31609749 </i>
    <i name="e_wo_entrp">   -332.30007361 </i>
    <i name="e_0_energy">   -332.31075620 </i>
   </energy>
  </scstep>
  <scstep>
   <time name="dav">   27.26   27.30</time>
   <time name="total">   27.88   27.92</time>
   <energy>
    <i name="e_fr_energy">   -332.30540284 </i>
    <i name="e_wo_entrp">   -332.28818534 </i>
    <i name="e_0_energy">   -332.29966367 </i>
   </energy>
  </scstep>
  <scstep>
   <time name="dav">   26.84   26.88</time>
   <time name="total">   27.47   27.51</time>
   <energy>
    <i name="e_fr_energy">   -332.30053708 </i>
    <i name="e_wo_entrp">   -332.28320948 </i>
    <i name="e_0_energy">   -332.29476122 </i>
   </energy>
  </scstep>
  <scstep>
   <time name="dav">   25.77   25.81</time>
   <time name="total">   26.41   26.46</time>
   <energy>
    <i name="e_fr_energy">   -332.30015868 </i>
    <i name="e_wo_entrp">   -332.28307090 </i>
    <i name="e_0_energy">   -332.29446275 </i>
   </energy>
  </scstep>
  <scstep>
   <time name="dav">   24.61   24.64</time>
   <time name="total">   25.23   25.27</time>
   <energy>
    <i name="e_fr_energy">   -332.30022307 </i>
    <i name="e_wo_entrp">   -332.28304440 </i>
    <i name="e_0_energy">   -332.29449685 </i>
   </energy>
  </scstep>
  <scstep>
   <time name="dav">   24.22   24.25</time>
   <time name="total">   24.84   24.88</time>
   <energy>
    <i name="e_fr_energy">   -332.30022608 </i>
    <i name="e_wo_entrp">   -332.28319173 </i>
    <i name="e_0_energy">   -332.29454797 </i>
   </energy>
  </scstep>
  <scstep>
   <time name="dav">   23.53   23.56</time>
   <time name="total">   24.16   24.20</time>
   <energy>
    <i name="e_fr_energy">   -332.30014639 </i>
    <i name="e_wo_entrp">   -332.28302442 </i>
    <i name="e_0_energy">   -332.29443907 </i>
   </energy>
  </scstep>
  <scstep>
   <time name="dav">   17.06   17.08</time>
   <time name="total">   17.09   17.11</time>
   <energy>
    <i name="alphaZ">   1270.34381905 </i>
    <i name="ewald"> -10819.88477066 </i>
    <i name="hartreedc">  -2495.67935782 </i>
    <i name="XCdc">   -954.44791680 </i>
    <i name="pawpsdc">  20267.96914159 </i>
    <i name="pawaedc"> -18730.19238574 </i>
    <i name="eentropy">     -0.01708890 </i>
    <i name="bandstr">   -527.05153919 </i>
    <i name="atom">  11656.65998444 </i>
    <i name="e_fr_energy">   -332.30011404 </i>
    <i name="e_wo_entrp">   -332.28302514 </i>
    <i name="e_0_energy">   -332.29441774 </i>
   </energy>
  </scstep>
  <structure>
   <crystal>
    <varray name="basis" >
     <v>      -3.18405315      -3.14771497      -3.15911724 </v>
     <v>       1.56585465       1.64018600      -7.93795911 </v>
     <v>       7.92679964      -7.90634407      -1.50916017 </v>
    </varray>
    <i name="volume">    478.52091134 </i>
    <varray name="rec_basis" >
     <v>      -0.13632746      -0.12655557      -0.05304180 </v>
     <v>       0.04226913       0.06237332      -0.10475096 </v>
     <v>       0.06304421      -0.06315628      -0.00061351 </v>
    </varray>
   </crystal>
   <varray name="positions" >
    <v>       0.96165467       0.93359136       0.39480846 </v>
    <v>       0.63367536       0.26456535       0.40033493 </v>
    <v>       0.50134078       0.00321280      -0.00218444 </v>
    <v>       0.09339357       0.20027895       0.80510819 </v>
    <v>       0.03779236       0.06746015       0.59808853 </v>
    <v>       0.90185165       0.80004690       0.20086754 </v>
    <v>       0.80448551       0.59321178       0.39870348 </v>
    <v>       0.73359323       0.46624397       0.19795353 </v>
    <v>       0.66502710       0.33500754      -0.00192088 </v>
    <v>       0.36693196       0.72858505       0.60102704 </v>
    <v>       0.13152284       0.27177493       0.39890101 </v>
    <v>       0.83428353       0.66272065       0.00355647 </v>
    <v>       0.93058434       0.87455981       0.80679300 </v>
    <v>       0.56535178       0.13340018       0.19634654 </v>
    <v>       0.40668855       0.79258929       0.19825678 </v>
    <v>       0.44318578       0.85691056       0.79639946 </v>
    <v>       0.29971364       0.60264882       0.40214433 </v>
    <v>       0.86195760       0.73245667       0.59746695 </v>
    <v>       0.46492218       0.93204587       0.40372471 </v>
    <v>       0.17292053       0.33814858       0.00276665 </v>
    <v>       0.26945928       0.53364165       0.79932735 </v>
    <v>       0.20043348       0.39624139       0.59620271 </v>
    <v>       0.06479014       0.13849998       0.20043315 </v>
    <v>       0.76831752       0.52731043       0.80046916 </v>
    <v>       0.69610804       0.40856284       0.60342889 </v>
    <v>       0.59424316       0.20358774       0.79832450 </v>
    <v>       0.53713921       0.06846189       0.60284368 </v>
    <v>       0.32865324       0.66571584       0.00127172 </v>
    <v>       0.22997899       0.46851905       0.19855655 </v>
   </varray>
  </structure>
  <varray name="forces" >
   <v>      -0.12688184       0.23808063       0.13090244 </v>
   <v>       0.02706758       0.07864530      -0.02885504 </v>
   <v>      -0.17879082       0.13079509       0.09737209 </v>
   <v>       0.13398548      -0.18788714       0.19538835 </v>
   <v>       0.07707438      -0.06744309      -0.07776871 </v>
   <v>      -0.12925224       0.05796704      -0.00669786 </v>
   <v>      -0.05094891       0.03128484      -0.00740828 </v>
   <v>       0.00876908      -0.02911917       0.18272570 </v>
   <v>      -0.06201695      -0.01263154       0.00741606 </v>
   <v>      -0.00708477       0.05893611       0.09224955 </v>
   <v>      -0.01219591      -0.00303511       0.05378064 </v>
   <v>       0.13186593       0.14761563      -0.04177859 </v>
   <v>       0.26704355      -0.36693001      -0.38382061 </v>
   <v>      -0.04409657       0.10548340       0.08611865 </v>
   <v>       0.06799118      -0.04824359      -0.14941030 </v>
   <v>      -0.04623913      -0.09946419      -0.00619566 </v>
   <v>      -0.10261397      -0.00080766       0.04577247 </v>
   <v>       0.04462503       0.02874684      -0.02016880 </v>
   <v>       0.10811679      -0.07761509       0.08638619 </v>
   <v>      -0.02685339      -0.15189917      -0.26408583 </v>
   <v>       0.07815075       0.09389051      -0.03743255 </v>
   <v>      -0.03670984       0.08672506       0.18180051 </v>
   <v>      -0.01503421       0.09752191      -0.17389778 </v>
   <v>      -0.06316412      -0.15471639      -0.07897125 </v>
   <v>      -0.04420279      -0.02289738       0.13083854 </v>
   <v>       0.15308977       0.15356231       0.06125938 </v>
   <v>      -0.07751057      -0.06390240      -0.02717094 </v>
   <v>      -0.09331311       0.13926164       0.00110688 </v>
   <v>       0.01912961      -0.16192437      -0.04945526 </v>
  </varray>
  <varray name="stress" >
   <v>       7.61741773       0.28083459       0.34603036 </v>
   <v>       0.28083456       5.71592772      -2.01239219 </v>
   <v>       0.34603039      -2.01239219       8.65232500 </v>
  </varray>
  <energy>
   <i name="e_fr_energy">   -332.30011404 </i>
   <i name="e_wo_entrp">   -332.29441774 </i>
   <i name="e_0_energy">     -0.01708890 </i>
  </energy>
  <time name="totalsc">  346.40  347.06</time>
 </calculation>
 <calculation>
  <scstep>
   <time name="dav">   19.16   19.19</time>
   <time name="total">   19.80   19.83</time>
   <energy>
    <i name="alphaZ">   1266.95612623 </i>
    <i name="ewald"> -10815.94510754 </i>
    <i name="hartreedc">  -2487.47424206 </i>
    <i name="XCdc">   -954.76802441 </i>
    <i name="pawpsdc">  20267.89568910 </i>
    <i name="pawaedc"> -18730.13284907 </i>
    <i name="eentropy">     -0.01534386 </i>
    <i name="bandstr">   -535.47767816 </i>
    <i name="atom">  11656.65998444 </i>
    <i name="e_fr_energy">   -332.30144534 </i>
    <i name="e_wo_entrp">   -332.28610149 </i>
    <i name="e_0_energy">   -332.29633072 </i>
   </energy>
  </scstep>
  <scstep>
   <time name="dav">   26.76   26.80</time>
   <time name="total">   27.40   27.45</time>
   <energy>
    <i name="e_fr_energy">   -332.33229683 </i>
    <i name="e_wo_entrp">   -332.31636684 </i>
    <i name="e_0_energy">   -332.32698683 </i>
   </energy>
  </scstep>
  <scstep>
   <time name="dav">   25.69   25.72</time>
   <time name="total">   26.31   26.35</time>
   <energy>
    <i name="e_fr_energy">   -332.32176826 </i>
    <i name="e_wo_entrp">   -332.30555952 </i>
    <i name="e_0_energy">   -332.31636535 </i>
   </energy>
  </scstep>
  <scstep>
   <time name="dav">   25.98   26.02</time>
   <time name="total">   26.61   26.64</time>
   <energy>
    <i name="e_fr_energy">   -332.31779303 </i>
    <i name="e_wo_entrp">   -332.30241059 </i>
    <i name="e_0_energy">   -332.31266555 </i>
   </energy>
  </scstep>
  <scstep>
   <time name="dav">   25.73   25.77</time>
   <time name="total">   26.35   26.40</time>
   <energy>
    <i name="e_fr_energy">   -332.31687489 </i>
    <i name="e_wo_entrp">   -332.30057589 </i>
    <i name="e_0_energy">   -332.31144189 </i>
   </energy>
  </scstep>
  <scstep>
   <time name="dav">   26.53   26.57</time>
   <time name="total">   27.16   27.20</time>
   <energy>
    <i name="e_fr_energy">   -332.31659553 </i>
    <i name="e_wo_entrp">   -332.30086828 </i>
    <i name="e_0_energy">   -332.31135311 </i>
   </energy>
  </scstep>
  <scstep>
   <time name="dav">   26.10   26.14</time>
   <time name="total">   26.73   26.77</time>
   <energy>
    <i name="e_fr_energy">   -332.31598972 </i>
    <i name="e_wo_entrp">   -332.30008729 </i>
    <i name="e_0_energy">   -332.31068891 </i>
   </energy>
  </scstep>
  <scstep>
   <time name="dav">   23.92   23.96</time>
   <time name="total">   24.57   24.61</time>
   <energy>
    <i name="e_fr_energy">   -332.31570463 </i>
    <i name="e_wo_entrp">   -332.29973799 </i>
    <i name="e_0_energy">   -332.31038242 </i>
   </energy>
  </scstep>
  <scstep>
   <time name="dav">   18.85   18.88</time>
   <time name="total">   18.88   18.91</time>
   <energy>
    <i name="alphaZ">   1266.95612623 </i>
    <i name="ewald"> -10815.94510754 </i>
    <i name="hartreedc">  -2491.47690106 </i>
    <i name="XCdc">   -954.65417072 </i>
    <i name="pawpsdc">  20193.95834908 </i>
    <i name="pawaedc"> -18656.11410633 </i>
    <i name="eentropy">     -0.01589908 </i>
    <i name="bandstr">   -531.68395967 </i>
    <i name="atom">  11656.65998444 </i>
    <i name="e_fr_energy">   -332.31568466 </i>
    <i name="e_wo_entrp">   -332.29978558 </i>
    <i name="e_0_energy">   -332.31038497 </i>
   </energy>
  </scstep>
  <structure>
   <crystal>
    <varray name="basis" >
     <v>      -3.18908964      -3.14626522      -3.15984995 </v>
     <v>       1.56370726       1.65115577      -7.94682233 </v>
     <v>       7.93356577      -7.90935640      -1.49706252 </v>
    </varray>
    <i name="volume">    479.80042041 </i>
    <varray name="rec_basis" >
     <v>      -0.13615272      -0.12652275      -0.05307930 </v>
     <v>       0.04227221       0.06219908      -0.10459505 </v>
     <v>       0.06298497      -0.06311835      -0.00072081 </v>
    </varray>
   </crystal>
   <varray name="positions" >
    <v>       0.96073341       0.93363731       0.39386220 </v>
    <v>       0.63372222       0.26420375       0.40037692 </v>
    <v>       0.50155981       0.00377405      -0.00258599 </v>
    <v>       0.09222871       0.20027196       0.80606522 </v>
    <v>       0.03859116       0.06760380       0.59776308 </v>
    <v>       0.90219127       0.80010247       0.20098249 </v>
    <v>       0.80526433       0.59203894       0.39847921 </v>
    <v>       0.73365139       0.46611908       0.19759588 </v>
    <v>       0.66480667       0.33523522      -0.00225714 </v>
    <v>       0.36696074       0.72774128       0.60120213 </v>
    <v>       0.13120541       0.27265179       0.39871713 </v>
    <v>       0.83446417       0.66205841       0.00417945 </v>
    <v>       0.93019422       0.87597789       0.80806529 </v>
    <v>       0.56513792       0.13338105       0.19568450 </v>
    <v>       0.40781512       0.79136399       0.19796298 </v>
    <v>       0.44489339       0.85520541       0.79577253 </v>
    <v>       0.29967616       0.60308731       0.40253742 </v>
    <v>       0.86112571       0.73229732       0.59700886 </v>
    <v>       0.46460901       0.93180761       0.40438882 </v>
    <v>       0.17405642       0.33899988       0.00327351 </v>
    <v>       0.26991658       0.53369861       0.79920066 </v>
    <v>       0.20047461       0.39558700       0.59551803 </v>
    <v>       0.06445727       0.13942238       0.20048075 </v>
    <v>       0.76866115       0.52625014       0.80054557 </v>
    <v>       0.69543989       0.41005192       0.60403420 </v>
    <v>       0.59316529       0.20424284       0.79804334 </v>
    <v>       0.53783035       0.06876717       0.60333739 </v>
    <v>       0.32776100       0.66560460       0.00146003 </v>
    <v>       0.22940662       0.46881685       0.19830554 </v>
   </varray>
  </structure>
  <varray name="forces" >
   <v>      -0.08114889       0.13699263       0.10164102 </v>
   <v>       0.03800175       0.11072160      -0.07424559 </v>
   <v>      -0.17977146       0.11831440       0.17389116 </v>
   <v>       0.00617955      -0.16650245       0.19463714 </v>
   <v>       0.15408735      -0.08134155      -0.05105215 </v>
   <v>      -0.15835116       0.09103483       0.02959566 </v>
   <v>       0.01534316       0.07637697      -0.10819561 </v>
   <v>       0.05277862      -0.06434266       0.20326555 </v>
   <v>      -0.04264087      -0.05486400       0.01059874 </v>
   <v>      -0.01053021       0.11053019       0.01673831 </v>
   <v>      -0.03359433      -0.05396932       0.13843603 </v>
   <v>       0.12362588       0.25835478      -0.08722434 </v>
   <v>       0.14868183      -0.36522730      -0.30837806 </v>
   <v>       0.02001247       0.05766410       0.08059315 </v>
   <v>       0.18151624      -0.02234717      -0.25833608 </v>
   <v>       0.09133138      -0.08194295      -0.12640804 </v>
   <v>      -0.17758097       0.04185535       0.10200300 </v>
   <v>       0.06609678      -0.03425239      -0.08130760 </v>
   <v>       0.04890795      -0.03271295       0.07862691 </v>
   <v>      -0.06057466      -0.09917286      -0.17688814 </v>
   <v>       0.12749454       0.10625625      -0.01983365 </v>
   <v>       0.04390202       0.04085673       0.14709263 </v>
   <v>      -0.05319401       0.09325863      -0.13015130 </v>
   <v>      -0.03539456      -0.14939617      -0.19233697 </v>
   <v>      -0.17101128      -0.02171936       0.30727223 </v>
   <v>       0.16229338       0.09781148       0.08705729 </v>
   <v>      -0.12688033      -0.00156048       0.03848970 </v>
   <v>      -0.17328157       0.14122979      -0.02954574 </v>
   <v>       0.02370141      -0.25190611      -0.06603523 </v>
  </varray>
  <varray name="stress" >
   <v>       3.22147053       0.15986576      -0.32152648 </v>
   <v>       0.15986569       1.60910850      -0.98353712 </v>
   <v>      -0.32152645      -0.98353711       4.76176691 </v>
  </varray>
  <energy>
   <i name="e_fr_energy">   -332.31568466 </i>
   <i name="e_wo_entrp">   -332.31038497 </i>
   <i name="e_0_energy">     -0.01589908 </i>
  </energy>
  <time name="totalsc">  241.77  242.17</time>
 </calculation>
 <calculation>
  <scstep>
   <time name="dav">   18.56   18.62</time>
   <time name="total">   19.19   19.28</time>
   <energy>
    <i name="alphaZ">   1260.52109728 </i>
    <i name="ewald"> -10799.77798191 </i>
    <i name="hartreedc">  -2485.14954546 </i>
    <i name="XCdc">   -955.21870708 </i>
    <i name="pawpsdc">  20192.98763940 </i>
    <i name="pawaedc"> -18655.22295225 </i>
    <i name="eentropy">     -0.01413660 </i>
    <i name="bandstr">   -547.12559364 </i>
    <i name="atom">  11656.65998444 </i>
    <i name="e_fr_energy">   -332.34019583 </i>
    <i name="e_wo_entrp">   -332.32605922 </i>
    <i name="e_0_energy">   -332.33548363 </i>
   </energy>
  </scstep>
  <scstep>
   <time name="dav">   24.56   24.59</time>
   <time name="total">   25.18   25.22</time>
   <energy>
    <i name="e_fr_energy">   -332.37752090 </i>
    <i name="e_wo_entrp">   -332.36164031 </i>
    <i name="e_0_energy">   -332.37222737 </i>
   </energy>
  </scstep>
  <scstep>
   <time name="dav">   25.03   25.07</time>
   <time name="total">   25.66   25.71</time>
   <energy>
    <i name="e_fr_energy">   -332.37257946 </i>
    <i name="e_wo_entrp">   -332.35878009 </i>
    <i name="e_0_energy">   -332.36797967 </i>
   </energy>
  </scstep>
  <scstep>
   <time name="dav">   25.09   25.12</time>
   <time name="total">   25.72   25.76</time>
   <energy>
    <i name="e_fr_energy">   -332.36110267 </i>
    <i name="e_wo_entrp">   -332.34605045 </i>
    <i name="e_0_energy">   -332.35608527 </i>
   </energy>
  </scstep>
  <scstep>
   <time name="dav">   25.59   25.63</time>
   <time name="total">   26.22   26.26</time>
   <energy>
    <i name="e_fr_energy">   -332.36003646 </i>
    <i name="e_wo_entrp">   -332.34506942 </i>
    <i name="e_0_energy">   -332.35504745 </i>
   </energy>
  </scstep>
  <scstep>
   <time name="dav">   26.82   26.85</time>
   <time name="total">   27.44   27.48</time>
   <energy>
    <i name="e_fr_energy">   -332.35880855 </i>
    <i name="e_wo_entrp">   -332.34418047 </i>
    <i name="e_0_energy">   -332.35393252 </i>
   </energy>
  </scstep>
  <scstep>
   <time name="dav">   25.75   25.79</time>
   <time name="total">   26.37   26.42</time>
   <energy>
    <i name="e_fr_energy">   -332.35839551 </i>
    <i name="e_wo_entrp">   -332.34324435 </i>
    <i name="e_0_energy">   -332.35334512 </i>
   </energy>
  </scstep>
  <scstep>
   <time name="dav">   23.54   23.58</time>
   <time name="total">   24.17   24.21</time>
   <energy>
    <i name="e_fr_energy">   -332.35816800 </i>
    <i name="e_wo_entrp">   -332.34331351 </i>
    <i name="e_0_energy">   -332.35321650 </i>
   </energy>
  </scstep>
  <scstep>
   <time name="dav">   16.03   16.05</time>
   <time name="total">   16.06   16.08</time>
   <energy>
    <i name="alphaZ">   1260.52109728 </i>
    <i name="ewald"> -10799.77798191 </i>
    <i name="hartreedc">  -2493.14135300 </i>
    <i name="XCdc">   -955.00496375 </i>
    <i name="pawpsdc">  20019.86067649 </i>
    <i name="pawaedc"> -18481.72623963 </i>
[...]
       <r>    4.6059    1.0000 </r>
       <r>    4.6566    1.0000 </r>
       <r>    4.6933    1.0000 </r>
       <r>    4.7564    1.0000 </r>
       <r>    4.7720    1.0000 </r>
       <r>    4.8686    1.0000 </r>
       <r>    4.9545    1.0000 </r>
       <r>    4.9959    1.0000 </r>
       <r>    5.0746    1.0000 </r>
       <r>    5.1042    1.0000 </r>
       <r>    5.1480    1.0000 </r>
       <r>    5.1880    1.0000 </r>
       <r>    5.2400    1.0000 </r>
       <r>    5.2996    1.0000 </r>
       <r>    5.3901    1.0000 </r>
       <r>    5.4401    1.0000 </r>
       <r>    5.4833    1.0000 </r>
       <r>    5.5125    1.0000 </r>
       <r>    5.6009    1.0000 </r>
       <r>    5.6545    1.0000 </r>
       <r>    5.6990    1.0000 </r>
       <r>    5.7770    1.0000 </r>
       <r>    5.8389    1.0000 </r>
       <r>    5.8879    1.0000 </r>
       <r>    5.9181    1.0000 </r>
       <r>    5.9668    1.0001 </r>
       <r>    6.0246    1.0006 </r>
       <r>    6.0910    1.0026 </r>
       <r>    6.1543    1.0082 </r>
       <r>    6.1899    1.0139 </r>
       <r>    6.2072    1.0174 </r>
       <r>    6.3118    1.0354 </r>
       <r>    6.3568    1.0227 </r>
       <r>    6.4001    0.9797 </r>
       <r>    6.4957    0.7300 </r>
       <r>    6.5327    0.5833 </r>
       <r>    6.5831    0.3722 </r>
       <r>    6.6217    0.2256 </r>
       <r>    6.6987    0.0297 </r>
       <r>    6.8482   -0.0286 </r>
       <r>    6.9118   -0.0146 </r>
       <r>    7.0528   -0.0012 </r>
       <r>    7.1989   -0.0000 </r>
       <r>    7.3087   -0.0000 </r>
       <r>    7.3623   -0.0000 </r>
       <r>    7.4904   -0.0000 </r>
       <r>    7.7229   -0.0000 </r>
       <r>    7.9044   -0.0000 </r>
       <r>    7.9581   -0.0000 </r>
       <r>    8.0461   -0.0000 </r>
       <r>    8.4080   -0.0000 </r>
       <r>    8.4742   -0.0000 </r>
       <r>    8.5090   -0.0000 </r>
       <r>    8.6186   -0.0000 </r>
       <r>    8.6728   -0.0000 </r>
       <r>    8.7395   -0.0000 </r>
       <r>    8.8291   -0.0000 </r>
       <r>    8.8696   -0.0000 </r>
       <r>    8.8943   -0.0000 </r>
       <r>    8.9366   -0.0000 </r>
       <r>    8.9897   -0.0000 </r>
      </set>
     </set>
    </set>
   </array>
  </eigenvalues>
  <separator name="orbital magnetization" >
   <v name="MAGDIPOLOUT">      0.00000000      0.00000000      0.00000000</v>
  </separator>
  <dos>
   <i name="efermi">      6.55246668 </i>
   <total>
    <array>
     <dimension dim="1">gridpoints</dimension>
     <dimension dim="2">spin</dimension>
     <field>energy</field>
     <field>total</field>
     <field>integrated</field>
     <set>
      <set comment="spin 1">
       <r>   -50.4740     0.0000     0.0000 </r>
       <r>   -50.2658     0.0000     0.0000 </r>
       <r>   -50.0576     0.0000     0.0000 </r>
       <r>   -49.8494     0.0000     0.0000 </r>
       <r>   -49.6413     0.0000     0.0000 </r>
       <r>   -49.4331    -0.0000    -0.0000 </r>
       <r>   -49.2249    -0.0000    -0.0000 </r>
       <r>   -49.0167    -0.0000    -0.0000 </r>
       <r>   -48.8085    -0.0000    -0.0000 </r>
       <r>   -48.6003    -0.0000    -0.0000 </r>
       <r>   -48.3922    -0.0000    -0.0000 </r>
       <r>   -48.1840    -0.0044    -0.0009 </r>
       <r>   -47.9758    -0.2816    -0.0595 </r>
       <r>   -47.7676     0.0611    -0.0468 </r>
       <r>   -47.5594    16.7245     3.4350 </r>
       <r>   -47.3512    24.5804     8.5522 </r>
       <r>   -47.1431     7.5158    10.1169 </r>
       <r>   -46.9349    -0.4571    10.0217 </r>
       <r>   -46.7267    -0.1032    10.0002 </r>
       <r>   -46.5185    -0.0010    10.0000 </r>
       <r>   -46.3103    -0.0000    10.0000 </r>
       <r>   -46.1021    -0.0000    10.0000 </r>
       <r>   -45.8940    -0.0000    10.0000 </r>
       <r>   -45.6858     0.0000    10.0000 </r>
       <r>   -45.4776     0.0000    10.0000 </r>
       <r>   -45.2694     0.0000    10.0000 </r>
       <r>   -45.0612     0.0000    10.0000 </r>
       <r>   -44.8530     0.0000    10.0000 </r>
       <r>   -44.6449     0.0000    10.0000 </r>
       <r>   -44.4367     0.0000    10.0000 </r>
       <r>   -44.2285     0.0000    10.0000 </r>
       <r>   -44.0203     0.0000    10.0000 </r>
       <r>   -43.8121     0.0000    10.0000 </r>
       <r>   -43.6039     0.0000    10.0000 </r>
       <r>   -43.3958     0.0000    10.0000 </r>
       <r>   -43.1876     0.0000    10.0000 </r>
       <r>   -42.9794     0.0000    10.0000 </r>
       <r>   -42.7712     0.0000    10.0000 </r>
       <r>   -42.5630     0.0000    10.0000 </r>
       <r>   -42.3548     0.0000    10.0000 </r>
       <r>   -42.1467     0.0000    10.0000 </r>
       <r>   -41.9385     0.0000    10.0000 </r>
       <r>   -41.7303     0.0000    10.0000 </r>
       <r>   -41.5221     0.0000    10.0000 </r>
       <r>   -41.3139     0.0000    10.0000 </r>
       <r>   -41.1057     0.0000    10.0000 </r>
       <r>   -40.8976     0.0000    10.0000 </r>
       <r>   -40.6894     0.0000    10.0000 </r>
       <r>   -40.4812     0.0000    10.0000 </r>
       <r>   -40.2730     0.0000    10.0000 </r>
       <r>   -40.0648     0.0000    10.0000 </r>
       <r>   -39.8566     0.0000    10.0000 </r>
       <r>   -39.6485     0.0000    10.0000 </r>
       <r>   -39.4403     0.0000    10.0000 </r>
       <r>   -39.2321     0.0000    10.0000 </r>
       <r>   -39.0239     0.0000    10.0000 </r>
       <r>   -38.8157     0.0000    10.0000 </r>
       <r>   -38.6075     0.0000    10.0000 </r>
       <r>   -38.3994     0.0000    10.0000 </r>
       <r>   -38.1912     0.0000    10.0000 </r>
       <r>   -37.9830     0.0000    10.0000 </r>
       <r>   -37.7748     0.0000    10.0000 </r>
       <r>   -37.5666     0.0000    10.0000 </r>
       <r>   -37.3584     0.0000    10.0000 </r>
       <r>   -37.1503     0.0000    10.0000 </r>
       <r>   -36.9421     0.0000    10.0000 </r>
       <r>   -36.7339     0.0000    10.0000 </r>
       <r>   -36.5257     0.0000    10.0000 </r>
       <r>   -36.3175     0.0000    10.0000 </r>
       <r>   -36.1093     0.0000    10.0000 </r>
       <r>   -35.9012     0.0000    10.0000 </r>
       <r>   -35.6930     0.0000    10.0000 </r>
       <r>   -35.4848     0.0000    10.0000 </r>
       <r>   -35.2766     0.0000    10.0000 </r>
       <r>   -35.0684     0.0000    10.0000 </r>
       <r>   -34.8602     0.0000    10.0000 </r>
       <r>   -34.6521     0.0000    10.0000 </r>
       <r>   -34.4439     0.0000    10.0000 </r>
       <r>   -34.2357     0.0000    10.0000 </r>
       <r>   -34.0275     0.0000    10.0000 </r>
       <r>   -33.8193     0.0000    10.0000 </r>
       <r>   -33.6111     0.0000    10.0000 </r>
       <r>   -33.4030     0.0000    10.0000 </r>
       <r>   -33.1948     0.0000    10.0000 </r>
       <r>   -32.9866     0.0000    10.0000 </r>
       <r>   -32.7784     0.0000    10.0000 </r>
       <r>   -32.5702     0.0000    10.0000 </r>
       <r>   -32.3620     0.0000    10.0000 </r>
       <r>   -32.1539     0.0000    10.0000 </r>
       <r>   -31.9457     0.0000    10.0000 </r>
       <r>   -31.7375     0.0000    10.0000 </r>
       <r>   -31.5293     0.0000    10.0000 </r>
       <r>   -31.3211     0.0000    10.0000 </r>
       <r>   -31.1129     0.0000    10.0000 </r>
       <r>   -30.9048     0.0000    10.0000 </r>
       <r>   -30.6966     0.0000    10.0000 </r>
       <r>   -30.4884     0.0000    10.0000 </r>
       <r>   -30.2802     0.0000    10.0000 </r>
       <r>   -30.0720     0.0000    10.0000 </r>
       <r>   -29.8638     0.0000    10.0000 </r>
       <r>   -29.6557     0.0000    10.0000 </r>
       <r>   -29.4475     0.0000    10.0000 </r>
       <r>   -29.2393     0.0000    10.0000 </r>
       <r>   -29.0311     0.0000    10.0000 </r>
       <r>   -28.8229     0.0000    10.0000 </r>
       <r>   -28.6147     0.0000    10.0000 </r>
       <r>   -28.4065     0.0000    10.0000 </r>
       <r>   -28.1984     0.0000    10.0000 </r>
       <r>   -27.9902     0.0000    10.0000 </r>
       <r>   -27.7820     0.0000    10.0000 </r>
       <r>   -27.5738     0.0000    10.0000 </r>
       <r>   -27.3656     0.0000    10.0000 </r>
       <r>   -27.1574     0.0000    10.0000 </r>
       <r>   -26.9493     0.0000    10.0000 </r>
       <r>   -26.7411     0.0000    10.0000 </r>
       <r>   -26.5329     0.0000    10.0000 </r>
       <r>   -26.3247     0.0000    10.0000 </r>
       <r>   -26.1165     0.0000    10.0000 </r>
       <r>   -25.9083     0.0000    10.0000 </r>
       <r>   -25.7002    -0.0000    10.0000 </r>
       <r>   -25.4920    -0.0000    10.0000 </r>
       <r>   -25.2838    -0.0000    10.0000 </r>
       <r>   -25.0756    -0.0000    10.0000 </r>
       <r>   -24.8674    -0.0000    10.0000 </r>
       <r>   -24.6592    -0.0021     9.9996 </r>
       <r>   -24.4511    -0.1420     9.9700 </r>
       <r>   -24.2429    -0.0014     9.9697 </r>
       <r>   -24.0347     6.1625    11.2526 </r>
       <r>   -23.8265    25.0866    16.4752 </r>
       <r>   -23.6183    58.7406    28.7040 </r>
       <r>   -23.4101    35.3869    36.0710 </r>
       <r>   -23.2020    13.9579    38.9768 </r>
       <r>   -22.9938     5.5489    40.1320 </r>
       <r>   -22.7856    -0.5849    40.0102 </r>
       <r>   -22.5774    -0.0489    40.0001 </r>
       <r>   -22.3692    -0.0002    40.0000 </r>
       <r>   -22.1610    -0.0000    40.0000 </r>
       <r>   -21.9529    -0.0000    40.0000 </r>
       <r>   -21.7447     0.0000    40.0000 </r>
       <r>   -21.5365     0.0000    40.0000 </r>
       <r>   -21.3283     0.0000    40.0000 </r>
       <r>   -21.1201     0.0000    40.0000 </r>
       <r>   -20.9119     0.0000    40.0000 </r>
       <r>   -20.7038     0.0000    40.0000 </r>
       <r>   -20.4956     0.0000    40.0000 </r>
       <r>   -20.2874     0.0000    40.0000 </r>
       <r>   -20.0792     0.0000    40.0000 </r>
       <r>   -19.8710     0.0000    40.0000 </r>
       <r>   -19.6628     0.0000    40.0000 </r>
       <r>   -19.4547     0.0000    40.0000 </r>
       <r>   -19.2465     0.0000    40.0000 </r>
       <r>   -19.0383     0.0000    40.0000 </r>
       <r>   -18.8301     0.0000    40.0000 </r>
       <r>   -18.6219     0.0000    40.0000 </r>
       <r>   -18.4137     0.0000    40.0000 </r>
       <r>   -18.2056     0.0000    40.0000 </r>
       <r>   -17.9974     0.0000    40.0000 </r>
       <r>   -17.7892     0.0000    40.0000 </r>
       <r>   -17.5810     0.0000    40.0000 </r>
       <r>   -17.3728     0.0000    40.0000 </r>
       <r>   -17.1646     0.0000    40.0000 </r>
       <r>   -16.9565     0.0000    40.0000 </r>
       <r>   -16.7483     0.0000    40.0000 </r>
       <r>   -16.5401     0.0000    40.0000 </r>
       <r>   -16.3319     0.0000    40.0000 </r>
       <r>   -16.1237     0.0000    40.0000 </r>
       <r>   -15.9155     0.0000    40.0000 </r>
       <r>   -15.7074     0.0000    40.0000 </r>
       <r>   -15.4992     0.0000    40.0000 </r>
       <r>   -15.2910     0.0000    40.0000 </r>
       <r>   -15.0828     0.0000    40.0000 </r>
       <r>   -14.8746     0.0000    40.0000 </r>
       <r>   -14.6664     0.0000    40.0000 </r>
       <r>   -14.4583     0.0000    40.0000 </r>
       <r>   -14.2501     0.0000    40.0000 </r>
       <r>   -14.0419     0.0000    40.0000 </r>
       <r>   -13.8337     0.0000    40.0000 </r>
       <r>   -13.6255     0.0000    40.0000 </r>
       <r>   -13.4173     0.0000    40.0000 </r>
       <r>   -13.2092     0.0000    40.0000 </r>
       <r>   -13.0010     0.0000    40.0000 </r>
       <r>   -12.7928     0.0000    40.0000 </r>
       <r>   -12.5846     0.0000    40.0000 </r>
       <r>   -12.3764     0.0000    40.0000 </r>
       <r>   -12.1682     0.0000    40.0000 </r>
       <r>   -11.9601     0.0000    40.0000 </r>
       <r>   -11.7519     0.0000    40.0000 </r>
       <r>   -11.5437     0.0000    40.0000 </r>
       <r>   -11.3355     0.0000    40.0000 </r>
       <r>   -11.1273     0.0000    40.0000 </r>
       <r>   -10.9191     0.0000    40.0000 </r>
       <r>   -10.7110     0.0000    40.0000 </r>
       <r>   -10.5028     0.0000    40.0000 </r>
       <r>   -10.2946     0.0000    40.0000 </r>
       <r>   -10.0864     0.0000    40.0000 </r>
       <r>    -9.8782     0.0000    40.0000 </r>
       <r>    -9.6700     0.0000    40.0000 </r>
       <r>    -9.4619     0.0000    40.0000 </r>
       <r>    -9.2537     0.0000    40.0000 </r>
       <r>    -9.0455     0.0000    40.0000 </r>
       <r>    -8.8373     0.0000    40.0000 </r>
       <r>    -8.6291     0.0000    40.0000 </r>
       <r>    -8.4209     0.0000    40.0000 </r>
       <r>    -8.2128     0.0000    40.0000 </r>
       <r>    -8.0046     0.0000    40.0000 </r>
       <r>    -7.7964     0.0000    40.0000 </r>
       <r>    -7.5882     0.0000    40.0000 </r>
       <r>    -7.3800     0.0000    40.0000 </r>
       <r>    -7.1718     0.0000    40.0000 </r>
       <r>    -6.9637     0.0000    40.0000 </r>
       <r>    -6.7555     0.0000    40.0000 </r>
       <r>    -6.5473     0.0000    40.0000 </r>
       <r>    -6.3391     0.0000    40.0000 </r>
       <r>    -6.1309     0.0000    40.0000 </r>
       <r>    -5.9227     0.0000    40.0000 </r>
       <r>    -5.7146     0.0000    40.0000 </r>
       <r>    -5.5064     0.0000    40.0000 </r>
       <r>    -5.2982     0.0000    40.0000 </r>
       <r>    -5.0900     0.0000    40.0000 </r>
       <r>    -4.8818     0.0000    40.0000 </r>
       <r>    -4.6736     0.0000    40.0000 </r>
       <r>    -4.4655     0.0000    40.0000 </r>
       <r>    -4.2573     0.0000    40.0000 </r>
       <r>    -4.0491     0.0000    40.0000 </r>
       <r>    -3.8409     0.0000    40.0000 </r>
       <r>    -3.6327     0.0000    40.0000 </r>
       <r>    -3.4245     0.0000    40.0000 </r>
       <r>    -3.2164     0.0000    40.0000 </r>
       <r>    -3.0082     0.0000    40.0000 </r>
       <r>    -2.8000     0.0000    40.0000 </r>
       <r>    -2.5918    -0.0000    40.0000 </r>
       <r>    -2.3836    -0.0000    40.0000 </r>
       <r>    -2.1754    -0.0000    40.0000 </r>
       <r>    -1.9673    -0.0000    40.0000 </r>
       <r>    -1.7591    -0.0000    40.0000 </r>
       <r>    -1.5509    -0.0000    40.0000 </r>
       <r>    -1.3427    -0.0001    40.0000 </r>
       <r>    -1.1345    -0.0052    39.9989 </r>
       <r>    -0.9263    -0.0030    39.9983 </r>
       <r>    -0.7182     0.2722    40.0549 </r>
       <r>    -0.5100     0.8922    40.2407 </r>
       <r>    -0.3018     1.5953    40.5728 </r>
       <r>    -0.0936     1.8907    40.9664 </r>
       <r>     0.1146     1.4511    41.2685 </r>
       <r>     0.3228     2.3993    41.7680 </r>
       <r>     0.5309     3.3532    42.4661 </r>
       <r>     0.7391     2.9677    43.0839 </r>
       <r>     0.9473     2.8063    43.6681 </r>
       <r>     1.1555     4.0963    44.5209 </r>
       <r>     1.3637     4.1223    45.3791 </r>
       <r>     1.5719     4.0496    46.2222 </r>
       <r>     1.7800     6.0130    47.4740 </r>
       <r>     1.9882     9.2671    49.4033 </r>
       <r>     2.1964    13.2047    52.1523 </r>
       <r>     2.4046    18.0074    55.9011 </r>
       <r>     2.6128    20.7497    60.2209 </r>
       <r>     2.8210    23.9991    65.2171 </r>
       <r>     3.0291    28.0278    71.0520 </r>
       <r>     3.2373    29.1571    77.1220 </r>
       <r>     3.4455    28.1966    82.9921 </r>
       <r>     3.6537    29.3356    89.0993 </r>
       <r>     3.8619    31.0021    95.5534 </r>
       <r>     4.0701    26.9903   101.1723 </r>
       <r>     4.2782    24.9043   106.3570 </r>
       <r>     4.4864    31.7621   112.9693 </r>
       <r>     4.6946    37.8983   120.8591 </r>
       <r>     4.9028    39.7024   129.1245 </r>
       <r>     5.1110    37.7115   136.9754 </r>
       <r>     5.3192    38.1359   144.9147 </r>
       <r>     5.5273    37.2390   152.6672 </r>
       <r>     5.7355    36.7396   160.3158 </r>
       <r>     5.9437    38.1631   168.2607 </r>
       <r>     6.1519    40.5233   176.6970 </r>
       <r>     6.3601    37.4002   184.4831 </r>
       <r>     6.5683    33.7520   191.5097 </r>
       <r>     6.7764    28.7496   197.4949 </r>
       <r>     6.9846    21.6529   202.0026 </r>
       <r>     7.1928    17.5314   205.6524 </r>
       <r>     7.4010    16.5925   209.1067 </r>
       <r>     7.6092    16.0950   212.4574 </r>
       <r>     7.8174    16.5030   215.8930 </r>
       <r>     8.0255    19.6796   219.9900 </r>
       <r>     8.2337    22.6018   224.6953 </r>
       <r>     8.4419    24.4902   229.7938 </r>
       <r>     8.6501    21.6399   234.2988 </r>
       <r>     8.8583    16.6913   237.7737 </r>
       <r>     9.0665     9.4692   239.7450 </r>
       <r>     9.2746     1.4377   240.0443 </r>
       <r>     9.4828    -0.1928   240.0042 </r>
       <r>     9.6910    -0.0199   240.0000 </r>
       <r>     9.8992    -0.0002   240.0000 </r>
       <r>    10.1074    -0.0000   240.0000 </r>
       <r>    10.3156    -0.0000   240.0000 </r>
       <r>    10.5237    -0.0000   240.0000 </r>
       <r>    10.7319     0.0000   240.0000 </r>
       <r>    10.9401     0.0000   240.0000 </r>
       <r>    11.1483     0.0000   240.0000 </r>
       <r>    11.3565     0.0000   240.0000 </r>
       <r>    11.5647     0.0000   240.0000 </r>
       <r>    11.7728     0.0000   240.0000 </r>
       <r>    11.9810     0.0000   240.0000 </r>
      </set>
     </set>
    </array>
   </total>
  </dos>
 </calculation>
 <structure name="finalpos" >
  <crystal>
   <varray name="basis" >
    <v>      -3.19251331      -3.13543969      -3.15598551 </v>
    <v>       1.56635857       1.67420718      -7.96664078 </v>
    <v>       7.92278638      -7.88107633      -1.47679185 </v>
   </varray>
   <i name="volume">    479.80891139 </i>
   <varray name="rec_basis" >
    <v>      -0.13600864      -0.12672713      -0.05337328 </v>
    <v>       0.04218798       0.06193898      -0.10421203 </v>
    <v>       0.06307239      -0.06331065      -0.00090391 </v>
   </varray>
  </crystal>
  <varray name="positions" >
   <v>       0.95802122       0.93188100       0.39119801 </v>
   <v>       0.63214374       0.26347390       0.40034811 </v>
   <v>       0.49265426       0.00399422      -0.00376264 </v>
   <v>       0.09110558       0.19931346       0.80810481 </v>
   <v>       0.03793854       0.06617148       0.59962174 </v>
   <v>       0.90324941       0.80020335       0.19771824 </v>
   <v>       0.80481530       0.59132826       0.39797749 </v>
   <v>       0.73316484       0.46551780       0.19789156 </v>
   <v>       0.66979366       0.33405652      -0.00168548 </v>
   <v>       0.36613815       0.72714455       0.60061034 </v>
   <v>       0.13043302       0.26955499       0.39883833 </v>
   <v>       0.83266529       0.66484870       0.00410546 </v>
   <v>       0.93670966       0.88058114       0.81433842 </v>
   <v>       0.56317381       0.13244584       0.19504489 </v>
   <v>       0.40663885       0.79408953       0.19832489 </v>
   <v>       0.44984918       0.85589363       0.79597455 </v>
   <v>       0.29981731       0.60082326       0.40107635 </v>
   <v>       0.86208282       0.73234190       0.59866635 </v>
   <v>       0.46316768       0.92895843       0.40546685 </v>
   <v>       0.18111802       0.34385881       0.00343978 </v>
   <v>       0.26800089       0.53729917       0.79843049 </v>
   <v>       0.19730169       0.39277964       0.59550477 </v>
   <v>       0.06226925       0.14303461       0.19701978 </v>
   <v>       0.77178841       0.52653550       0.80052147 </v>
   <v>       0.69530185       0.40604573       0.60363424 </v>
   <v>       0.58954471       0.20560399       0.79883323 </v>
   <v>       0.53910534       0.06692802       0.60300330 </v>
   <v>       0.32975131       0.66673096       0.00019890 </v>
   <v>       0.23225620       0.46856159       0.19955578 </v>
  </varray>
 </structure>
</modeling>
