SQS with 1 vacancy for VFE and VRV      
           1
    -3.190000   -3.190000   -3.190000
     1.595000    1.595000   -7.975000
     7.975000   -7.975000   -1.595000
   Nb   Mo   Ta   Ti   W 
   5   6   6   6   6
Direct configuration=     1
   0.96666667  0.93333333  0.40000000
   0.63333333  0.26666667  0.40000000
   0.50000000  0.00000000  0.00000000
   0.10000000  0.20000000  0.80000000
   0.03333333  0.06666667  0.60000000
   0.90000000  0.80000000  0.20000000
   0.80000000  0.60000000  0.40000000
   0.73333333  0.46666667  0.20000000
   0.66666667  0.33333333  0.00000000
   0.36666667  0.73333333  0.60000000
   0.13333333  0.26666667  0.40000000
   0.83333333  0.66666667  0.00000000
   0.93333333  0.86666667  0.80000000
   0.56666667  0.13333333  0.20000000
   0.40000000  0.80000000  0.20000000
   0.43333333  0.86666667  0.80000000
   0.30000000  0.60000000  0.40000000
   0.86666667  0.73333333  0.60000000
   0.46666667  0.93333333  0.40000000
   0.16666667  0.33333333  0.00000000
   0.26666667  0.53333333  0.80000000
   0.20000000  0.40000000  0.60000000
   0.06666667  0.13333333  0.20000000
   0.76666667  0.53333333  0.80000000
   0.70000000  0.40000000  0.60000000
   0.60000000  0.20000000  0.80000000
   0.53333333  0.06666667  0.60000000
   0.33333333  0.66666667  0.00000000
   0.23333333  0.46666667  0.20000000
SQS with 1 vacancy for VFE and VRV      
           1
    -3.142364   -3.121152   -3.126742
     1.555861    1.600343   -7.841302
     7.835549   -7.824351   -1.521539
   Nb   Mo   Ta   Ti   W 
   5   6   6   6   6
Direct configuration=     2
   0.96386126  0.93344026  0.39706733
   0.63363336  0.26534265  0.40031801
   0.50093835  0.00194938 -0.00118162
   0.09603415  0.20062161  0.80266432
   0.03593442  0.06710146  0.59877263
   0.90103370  0.79968642  0.20081220
   0.80277020  0.59573975  0.39915586
   0.73338158  0.46676837  0.19873374
   0.66515693  0.33482036 -0.00117782
   0.36694750  0.73054066  0.60064063
   0.13223538  0.26989868  0.39928457
   0.83382437  0.66408030  0.00216709
   0.93105801  0.87126355  0.80360650
   0.56570669  0.13357138  0.19791315
   0.40440098  0.79494030  0.19881959
   0.43945760  0.86067530  0.79773042
   0.29975944  0.60181792  0.40120369
   0.86379632  0.73281986  0.59853048
   0.46567369  0.93267359  0.40219178
   0.17026057  0.33623148  0.00158208
   0.26861601  0.53349485  0.79966135
   0.20047588  0.39765198  0.59778896
   0.06556903  0.13635222  0.20049918
   0.76725754  0.52971100  0.80030146
   0.69757085  0.40531818  0.60211161
   0.59697287  0.20197102  0.79888304
   0.53552549  0.06785180  0.60180196
   0.33099401  0.66568773  0.00101774
   0.23115381  0.46797795  0.19910007
SQS with 1 vacancy for VFE and VRV      
           1
    -3.164615   -3.153310   -3.156289
     1.574143    1.597847   -7.903751
     7.900685   -7.894718   -1.555852
   Nb   Mo   Ta   Ti   W 
   5   6   6   6   6
Direct configuration=     3
   0.96520150  0.93339571  0.39846422
   0.63349151  0.26597002  0.40016831
   0.50049179  0.00102689 -0.00062269
   0.09791571  0.20032212  0.80139848
   0.03469845  0.06689724  0.59935429
   0.90054067  0.79983341  0.20042555
   0.80145838  0.59776180  0.39956142
   0.73336083  0.46672261  0.19933600
   0.66587583  0.33411754 -0.00061850
   0.36681586  0.73186404  0.60033944
   0.13275549  0.26836717  0.39962128
   0.83358966  0.66530280  0.00113926
   0.93212888  0.86907632  0.80188597
   0.56616707  0.13346270  0.19890627
   0.40231467  0.79734198  0.19938516
   0.43655432  0.86352079  0.79881431
   0.29986964  0.60095328  0.40062873
   0.86516547  0.73306673  0.59923215
   0.46614292  0.93298238  0.40115057
   0.16854420  0.33485313  0.00082318
   0.26768885  0.53341861  0.79982099
   0.20025616  0.39877001  0.59884373
   0.06608700  0.13491942  0.20025833
   0.76697993  0.53142854  0.80016255
   0.69871685  0.40279177  0.60110140
   0.59841316  0.20103872  0.79941373
   0.53447768  0.06728578  0.60094166
   0.33210642  0.66615043  0.00053638
   0.23219111  0.46735805  0.19952785
SQS with 1 vacancy for VFE and VRV      
           1
    -3.184053   -3.147715   -3.159117
     1.565855    1.640186   -7.937959
     7.926800   -7.906344   -1.509160
   Nb   Mo   Ta   Ti   W 
   5   6   6   6   6
Direct configuration=     4
   0.96165467  0.93359136  0.39480846
   0.63367536  0.26456535  0.40033493
   0.50134078  0.00321280 -0.00218444
   0.09339357  0.20027895  0.80510819
   0.03779236  0.06746015  0.59808853
   0.90185165  0.80004690  0.20086754
   0.80448551  0.59321178  0.39870348
   0.73359323  0.46624397  0.19795353
   0.66502710  0.33500754 -0.00192088
   0.36693196  0.72858505  0.60102704
   0.13152284  0.27177493  0.39890101
   0.83428353  0.66272065  0.00355647
   0.93058434  0.87455981  0.80679300
   0.56535178  0.13340018  0.19634654
   0.40668855  0.79258929  0.19825678
   0.44318578  0.85691056  0.79639946
   0.29971364  0.60264882  0.40214433
   0.86195760  0.73245667  0.59746695
   0.46492218  0.93204587  0.40372471
   0.17292053  0.33814858  0.00276665
   0.26945928  0.53364165  0.79932735
   0.20043348  0.39624139  0.59620271
   0.06479014  0.13849998  0.20043315
   0.76831752  0.52731043  0.80046916
   0.69610804  0.40856284  0.60342889
   0.59424316  0.20358774  0.79832450
   0.53713921  0.06846189  0.60284368
   0.32865324  0.66571584  0.00127172
   0.22997899  0.46851905  0.19855655
SQS with 1 vacancy for VFE and VRV      
           1
    -3.189090   -3.146265   -3.159850
     1.563707    1.651156   -7.946822
     7.933566   -7.909356   -1.497063
   Nb   Mo   Ta   Ti   W 
   5   6   6   6   6
Direct configuration=     5
   0.96073341  0.93363731  0.39386220
   0.63372222  0.26420375  0.40037692
   0.50155981  0.00377405 -0.00258599
   0.09222871  0.20027196  0.80606522
   0.03859116  0.06760380  0.59776308
   0.90219127  0.80010247  0.20098249
   0.80526433  0.59203894  0.39847921
   0.73365139  0.46611908  0.19759588
   0.66480667  0.33523522 -0.00225714
   0.36696074  0.72774128  0.60120213
   0.13120541  0.27265179  0.39871713
   0.83446417  0.66205841  0.00417945
   0.93019422  0.87597789  0.80806529
   0.56513792  0.13338105  0.19568450
   0.40781512  0.79136399  0.19796298
   0.44489339  0.85520541  0.79577253
   0.29967616  0.60308731  0.40253742
   0.86112571  0.73229732  0.59700886
   0.46460901  0.93180761  0.40438882
   0.17405642  0.33899988  0.00327351
   0.26991658  0.53369861  0.79920066
   0.20047461  0.39558700  0.59551803
   0.06445727  0.13942238  0.20048075
   0.76866115  0.52625014  0.80054557
   0.69543989  0.41005192  0.60403420
   0.59316529  0.20424284  0.79804334
   0.53783035  0.06876717  0.60333739
   0.32776100  0.66560460  0.00146003
   0.22940662  0.46881685  0.19830554
SQS with 1 vacancy for VFE and VRV      
           1
    -3.194742   -3.147144   -3.165192
     1.567003    1.658468   -7.967609
     7.946704   -7.914721   -1.495521
   Nb   Mo   Ta   Ti   W 
   5   6   6   6   6
Direct configuration=     6
   0.96001127  0.93339140  0.39303621
   0.63303041  0.26487929  0.40017636
   0.50161643  0.00303859 -0.00353655
   0.09245058  0.19886986  0.80675184
   0.03838421  0.06794504  0.59838227
   0.90264906  0.79992377  0.20028145
   0.80514379  0.59257301  0.39826041
   0.73321054  0.46503449  0.19785718
   0.66532296  0.33498983 -0.00228911
   0.36634820  0.72778760  0.60088508
   0.13132835  0.27194148  0.39873517
   0.83243541  0.66332527  0.00391515
   0.93206400  0.87699005  0.80982199
   0.56443713  0.13319319  0.19543967
   0.40766469  0.79265062  0.19850338
   0.44544886  0.85541519  0.79615348
   0.30028836  0.60245884  0.40197684
   0.86094275  0.73268704  0.59721061
   0.46423845  0.93138323  0.40475595
   0.17567286  0.33962004  0.00349364
   0.26863967  0.53435738  0.79923686
   0.19961068  0.39495032  0.59538440
   0.06449885  0.14039674  0.20006982
   0.77029078  0.52646699  0.80089835
   0.69575352  0.40847707  0.60371309
   0.59115089  0.20455052  0.79817035
   0.53867883  0.06839203  0.60307207
   0.32791764  0.66579165  0.00058651
   0.23077084  0.46851947  0.19905752
SQS with 1 vacancy for VFE and VRV      
           1
    -3.196636   -3.147438   -3.166982
     1.568108    1.660918   -7.974574
     7.951106   -7.916518   -1.495004
   Nb   Mo   Ta   Ti   W 
   5   6   6   6   6
Direct configuration=     7
   0.95976923  0.93330931  0.39275967
   0.63279885  0.26510509  0.40010922
   0.50163493  0.00279285 -0.00385474
   0.09252499  0.19840131  0.80698156
   0.03831522  0.06805907  0.59858951
   0.90280199  0.79986403  0.20004685
   0.80510341  0.59275148  0.39818721
   0.73306300  0.46467210  0.19794451
   0.66549572  0.33490779 -0.00229978
   0.36614307  0.72780314  0.60077892
   0.13136944  0.27170412  0.39874116
   0.83175642  0.66374878  0.00382660
   0.93269058  0.87732806  0.81041020
   0.56420247  0.13313048  0.19535764
   0.40761467  0.79308056  0.19868433
   0.44563494  0.85548524  0.79628105
   0.30049298  0.60224879  0.40178922
   0.86088163  0.73281728  0.59727815
   0.46411454  0.93124145  0.40487876
   0.17621401  0.33982712  0.00356753
   0.26821237  0.53457762  0.79924890
   0.19932142  0.39473766  0.59533953
   0.06451270  0.14072232  0.19993237
   0.77083636  0.52653930  0.80101660
   0.69585822  0.40795081  0.60360553
   0.59047677  0.20465351  0.79821268
   0.53896267  0.06826660  0.60298333
   0.32796974  0.66585416  0.00029419
   0.23122770  0.46841996  0.19930931
SQS with 1 vacancy for VFE and VRV      
           1
    -3.191274   -3.138995   -3.160679
     1.566544    1.661669   -7.964954
     7.936480   -7.896427   -1.489588
   Nb   Mo   Ta   Ti   W 
   5   6   6   6   6
Direct configuration=     8
   0.95926688  0.93312140  0.39214953
   0.63244724  0.26537180  0.40002176
   0.50134411  0.00241104 -0.00442957
   0.09240513  0.19763197  0.80747806
   0.03817793  0.06812223  0.59902210
   0.90316329  0.79962157  0.19950885
   0.80504403  0.59298330  0.39802027
   0.73274677  0.46425973  0.19806873
   0.66588208  0.33483568 -0.00229597
   0.36582295  0.72777205  0.60060341
   0.13139555  0.27120443  0.39876007
   0.83070486  0.66437026  0.00376963
   0.93393520  0.87809494  0.81164212
   0.56378633  0.13291766  0.19520412
   0.40751814  0.79383694  0.19887107
   0.44637821  0.85557851  0.79643050
   0.30080425  0.60187755  0.40140642
   0.86080213  0.73306038  0.59754741
   0.46382407  0.93093761  0.40516766
   0.17746966  0.34041863  0.00369695
   0.26745528  0.53514732  0.79918916
   0.19863878  0.39425742  0.59528548
   0.06440530  0.14148885  0.19964810
   0.77162643  0.52655823  0.80110814
   0.69600030  0.40697234  0.60346114
   0.58940060  0.20487131  0.79827609
   0.53943312  0.06799259  0.60281767
   0.32811925  0.66597464 -0.00014859
   0.23200216  0.46830963  0.19971968
SQS with 1 vacancy for VFE and VRV      
           1
    -3.189964   -3.136932   -3.159139
     1.566162    1.661853   -7.962604
     7.932906   -7.891518   -1.488264
   Nb   Mo   Ta   Ti   W 
   5   6   6   6   6
Direct configuration=     9
   0.95914374  0.93307546  0.39200010
   0.63236115  0.26543704  0.40000034
   0.50127275  0.00231768 -0.00457036
   0.09237581  0.19744380  0.80759961
   0.03814440  0.06813767  0.59912802
   0.90325162  0.79956227  0.19937712
   0.80502947  0.59304000  0.39797940
   0.73266933  0.46415888  0.19809912
   0.66597667  0.33481804 -0.00229502
   0.36574452  0.72776446  0.60056041
   0.13140190  0.27108222  0.39876468
   0.83044743  0.66452229  0.00375565
   0.93424027  0.87828246  0.81194387
   0.56368439  0.13286561  0.19516650
   0.40749462  0.79402193  0.19891682
   0.44656024  0.85560131  0.79646714
   0.30088035  0.60178675  0.40131268
   0.86078274  0.73311984  0.59761335
   0.46375298  0.93086330  0.40523837
   0.17777720  0.34056327  0.00372873
   0.26726994  0.53528667  0.79917452
   0.19847157  0.39413998  0.59527220
   0.06437902  0.14167633  0.19957852
   0.77181990  0.52656284  0.80113059
   0.69603497  0.40673302  0.60342576
   0.58913713  0.20492460  0.79829157
   0.53954825  0.06792556  0.60277712
   0.32815578  0.66600410 -0.00025700
   0.23219186  0.46828262  0.19982019
SQS with 1 vacancy for VFE and VRV      
           1
    -3.190106   -3.136337   -3.158006
     1.566996    1.664006   -7.962970
     7.931949   -7.889607   -1.486819
   Nb   Mo   Ta   Ti   W 
   5   6   6   6   6
Direct configuration=    10
   0.95900749  0.93303591  0.39182691
   0.63245789  0.26518431  0.40003045
   0.50061605  0.00248844 -0.00453900
   0.09201150  0.19753179  0.80782836
   0.03815326  0.06788407  0.59921495
   0.90338004  0.79948552  0.19912344
   0.80501897  0.59291946  0.39793557
   0.73263884  0.46445738  0.19805284
   0.66626890  0.33478891 -0.00224386
   0.36574780  0.72770294  0.60058951
   0.13134348  0.27091454  0.39878571
   0.83077715  0.66429615  0.00390556
   0.93459699  0.87853993  0.81230481
   0.56374960  0.13267085  0.19512180
   0.40741129  0.79409980  0.19876349
   0.44722609  0.85554473  0.79631728
   0.30078404  0.60175212  0.40126736
   0.86084669  0.73311169  0.59779970
   0.46362200  0.93075315  0.40534287
   0.17823181  0.34088330  0.00370226
   0.26727295  0.53553274  0.79903723
   0.19822033  0.39399512  0.59531474
   0.06414909  0.14196807  0.19943696
   0.77161579  0.52641737  0.80096757
   0.69592808  0.40667692  0.60347966
   0.58919682  0.20505527  0.79830512
   0.53948389  0.06781881  0.60275726
   0.32813058  0.66614080 -0.00017310
   0.23211259  0.46834991  0.19974453
SQS with 1 vacancy for VFE and VRV      
           1
    -3.190533   -3.134553   -3.154607
     1.569499    1.670466   -7.964070
     7.929076   -7.883872   -1.482483
   Nb   Mo   Ta   Ti   W 
   5   6   6   6   6
Direct configuration=    11
   0.95859856  0.93291721  0.39130723
   0.63274787  0.26442631  0.40012076
   0.49864594  0.00300047 -0.00444497
   0.09091869  0.19779568  0.80851473
   0.03817962  0.06712345  0.59947573
   0.90376513  0.79925531  0.19836228
   0.80498728  0.59255788  0.39780402
   0.73254766  0.46535269  0.19791403
   0.66714568  0.33470165 -0.00209033
   0.36575756  0.72751841  0.60067678
   0.13116801  0.27041161  0.39884876
   0.83176627  0.66361798  0.00435538
   0.93566775  0.87931237  0.81338794
   0.56394503  0.13208669  0.19498763
   0.40716128  0.79433331  0.19830343
   0.44922370  0.85537516  0.79586771
   0.30049501  0.60164824  0.40113134
   0.86103864  0.73308732  0.59835886
   0.46322895  0.93042274  0.40565639
   0.17959615  0.34184331  0.00362297
   0.26728216  0.53627078  0.79862537
   0.19746636  0.39356055  0.59544233
   0.06345947  0.14284299  0.19901224
   0.77100313  0.52598096  0.80047836
   0.69560735  0.40650864  0.60364138
   0.58937606  0.20544719  0.79834582
   0.53929067  0.06749859  0.60269765
   0.32805520  0.66655082  0.00007869
   0.23187478  0.46855168  0.19951751
SQS with 1 vacancy for VFE and VRV      
           1
    -3.192970   -3.137542   -3.157147
     1.571253    1.671660   -7.970649
     7.934229   -7.889666   -1.484473
   Nb   Mo   Ta   Ti   W 
   5   6   6   6   6
Direct configuration=    12
   0.95859424  0.93272154  0.39131865
   0.63266819  0.26428957  0.40010864
   0.49795495  0.00319580 -0.00434308
   0.09100896  0.19807809  0.80851171
   0.03811403  0.06690156  0.59947998
   0.90371577  0.79946375  0.19825965
   0.80498511  0.59234516  0.39785878
   0.73263383  0.46539353  0.19796861
   0.66746998  0.33460144 -0.00199324
   0.36581113  0.72747809  0.60065942
   0.13106833  0.27037598  0.39886427
   0.83193796  0.66369820  0.00421377
   0.93591500  0.87937568  0.81354847
   0.56398158  0.13210050  0.19500306
   0.40696575  0.79432619  0.19825041
   0.44945116  0.85527137  0.79588845
   0.30028925  0.60158517  0.40114470
   0.86124429  0.73295056  0.59841663
   0.46316157  0.93023504  0.40560245
   0.17984470  0.34205950  0.00355738
   0.26731839  0.53645148  0.79855240
   0.19741234  0.39348231  0.59547774
   0.06328790  0.14297723  0.19877348
   0.77099444  0.52607078  0.80048546
   0.69543782  0.40652850  0.60359846
   0.58921289  0.20542998  0.79841404
   0.53923826  0.06746636  0.60278836
   0.32835138  0.66664052  0.00008930
   0.23193081  0.46850611  0.19950206
SQS with 1 vacancy for VFE and VRV      
           1
    -3.192757   -3.137280   -3.156924
     1.571099    1.671556   -7.970072
     7.933777   -7.889158   -1.484298
   Nb   Mo   Ta   Ti   W 
   5   6   6   6   6
Direct configuration=    13
   0.95859462  0.93273869  0.39131765
   0.63267518  0.26430155  0.40010970
   0.49801550  0.00317868 -0.00435201
   0.09100105  0.19805334  0.80851198
   0.03811978  0.06692100  0.59947961
   0.90372009  0.79944549  0.19826864
   0.80498530  0.59236380  0.39785398
   0.73262628  0.46538995  0.19796383
   0.66744156  0.33461022 -0.00200175
   0.36580644  0.72748163  0.60066094
   0.13107706  0.27037910  0.39886291
   0.83192292  0.66369117  0.00422618
   0.93589334  0.87937013  0.81353440
   0.56397837  0.13209929  0.19500171
   0.40698288  0.79432682  0.19825506
   0.44943123  0.85528047  0.79588663
   0.30030728  0.60159069  0.40114353
   0.86122627  0.73296254  0.59841157
   0.46316748  0.93025149  0.40560718
   0.17982292  0.34204056  0.00356313
   0.26731521  0.53643564  0.79855879
   0.19741708  0.39348917  0.59547464
   0.06330293  0.14296546  0.19879440
   0.77099520  0.52606291  0.80048484
   0.69545268  0.40652676  0.60360222
   0.58922718  0.20543149  0.79840806
   0.53924286  0.06746918  0.60278041
   0.32832543  0.66663266  0.00008837
   0.23192590  0.46851011  0.19950341
SQS with 1 vacancy for VFE and VRV      
           1
    -3.192508   -3.137573   -3.156744
     1.571387    1.671506   -7.969828
     7.932177   -7.888368   -1.484738
   Nb   Mo   Ta   Ti   W 
   5   6   6   6   6
Direct configuration=    14
   0.95858486  0.93253860  0.39132764
   0.63259084  0.26417470  0.40010853
   0.49731362  0.00336204 -0.00426046
   0.09109577  0.19834153  0.80847353
   0.03804909  0.06672799  0.59948361
   0.90366160  0.79963837  0.19819841
   0.80497942  0.59215424  0.39790568
   0.73271605  0.46540787  0.19801007
   0.66773459  0.33453237 -0.00191819
   0.36587621  0.72743787  0.60063706
   0.13097211  0.27035476  0.39887015
   0.83207075  0.66378093  0.00410966
   0.93610039  0.87943756  0.81365791
   0.56396916  0.13214707  0.19502369
   0.40681804  0.79429745  0.19822256
   0.44959046  0.85521114  0.79592452
   0.30010543  0.60152692  0.40116070
   0.86141991  0.73283333  0.59845087
   0.46312376  0.93006122  0.40554902
   0.18005092  0.34226212  0.00350733
   0.26736596  0.53659313  0.79850154
   0.19738556  0.39340996  0.59550217
   0.06314269  0.14308196  0.19855967
   0.77103199  0.52615080  0.80050532
   0.69530683  0.40654695  0.60356455
   0.58909902  0.20540284  0.79846704
   0.53920780  0.06744067  0.60287131
   0.32864383  0.66667419  0.00009362
   0.23199332  0.46847143  0.19949249
SQS with 1 vacancy for VFE and VRV      
           1
    -3.191762   -3.138452   -3.156204
     1.572251    1.671356   -7.969095
     7.927379   -7.885999   -1.486059
   Nb   Mo   Ta   Ti   W 
   5   6   6   6   6
Direct configuration=    15
   0.95855555  0.93193834  0.39135761
   0.63233783  0.26379413  0.40010504
   0.49520798  0.00391206 -0.00398570
   0.09138001  0.19920613  0.80835813
   0.03783699  0.06614893  0.59949563
   0.90348618  0.80021704  0.19798767
   0.80496172  0.59152554  0.39806081
   0.73298532  0.46546161  0.19814881
   0.66861362  0.33429881 -0.00166751
   0.36608555  0.72730660  0.60056541
   0.13065725  0.27028171  0.39889188
   0.83251433  0.66405023  0.00376001
   0.93672149  0.87963985  0.81402849
   0.56394150  0.13229040  0.19508963
   0.40632352  0.79420933  0.19812507
   0.45006813  0.85500318  0.79603819
   0.29949985  0.60133557  0.40121223
   0.86200079  0.73244572  0.59856878
   0.46299259  0.92949040  0.40537452
   0.18073500  0.34292685  0.00333989
   0.26751827  0.53706560  0.79832974
   0.19729100  0.39317230  0.59558477
   0.06266210  0.14343146  0.19785538
   0.77114236  0.52641447  0.80056676
   0.69486932  0.40660750  0.60345154
   0.58871451  0.20531688  0.79864405
   0.53910260  0.06735513  0.60314407
   0.32959906  0.66679880  0.00010936
   0.23219560  0.46835543  0.19945972
SQS with 1 vacancy for VFE and VRV      
           1
    -3.190766   -3.136784   -3.154921
     1.570597    1.671498   -7.965702
     7.923353   -7.882080   -1.483612
   Nb   Mo   Ta   Ti   W 
   5   6   6   6   6
Direct configuration=    16
   0.95841791  0.93189361  0.39132308
   0.63228786  0.26371298  0.40017782
   0.49464178  0.00393167 -0.00392673
   0.09124901  0.19924358  0.80828839
   0.03786672  0.06615131  0.59955047
   0.90340406  0.80021788  0.19791252
   0.80489327  0.59147229  0.39804973
   0.73299795  0.46551291  0.19809448
   0.66888249  0.33423560 -0.00166318
   0.36611026  0.72725850  0.60056634
   0.13058302  0.27012955  0.39890034
   0.83265523  0.66421435  0.00383592
   0.93673297  0.87982046  0.81409073
   0.56380050  0.13233500  0.19509943
   0.40641872  0.79417709  0.19815105
   0.44999274  0.85527867  0.79599152
   0.29954243  0.60122244  0.40117277
   0.86206295  0.73238993  0.59859977
   0.46304345  0.92935800  0.40538420
   0.18085033  0.34315834  0.00334421
   0.26758113  0.53713129  0.79833609
   0.19727211  0.39308107  0.59557788
   0.06258199  0.14338527  0.19767130
   0.77130682  0.52639933  0.80055112
   0.69493796  0.40648528  0.60349293
   0.58895910  0.20537877  0.79867939
   0.53905885  0.06725307  0.60313415
   0.32965156  0.66674170  0.00014146
   0.23221684  0.46843005  0.19947281
SQS with 1 vacancy for VFE and VRV      
           1
    -3.190550   -3.136421   -3.154641
     1.570237    1.671529   -7.964964
     7.922478   -7.881228   -1.483080
   Nb   Mo   Ta   Ti   W 
   5   6   6   6   6
Direct configuration=    17
   0.95838797  0.93188388  0.39131556
   0.63227699  0.26369533  0.40019365
   0.49451863  0.00393594 -0.00391390
   0.09122052  0.19925173  0.80827323
   0.03787319  0.06615183  0.59956240
   0.90338620  0.80021807  0.19789618
   0.80487838  0.59146071  0.39804732
   0.73300070  0.46552406  0.19808266
   0.66894097  0.33422185 -0.00166224
   0.36611564  0.72724804  0.60056655
   0.13056687  0.27009646  0.39890218
   0.83268587  0.66425005  0.00385243
   0.93673546  0.87985975  0.81410427
   0.56376983  0.13234470  0.19510156
   0.40643943  0.79417007  0.19815671
   0.44997635  0.85533859  0.79598138
   0.29955169  0.60119783  0.40116419
   0.86207647  0.73237779  0.59860652
   0.46305451  0.92932921  0.40538630
   0.18087542  0.34320869  0.00334515
   0.26759480  0.53714558  0.79833748
   0.19726800  0.39306122  0.59557638
   0.06256457  0.14337522  0.19763125
   0.77134259  0.52639604  0.80054772
   0.69495290  0.40645870  0.60350193
   0.58901230  0.20539223  0.79868708
   0.53904933  0.06723087  0.60313199
   0.32966299  0.66672928  0.00014844
   0.23222146  0.46844629  0.19947565
SQS with 1 vacancy for VFE and VRV      
           1
    -3.191634   -3.136505   -3.155479
     1.569125    1.672770   -7.966605
     7.923568   -7.882247   -1.481050
   Nb   Mo   Ta   Ti   W 
   5   6   6   6   6
Direct configuration=    18
   0.95826053  0.93189658  0.39128751
   0.63224294  0.26362662  0.40025500
   0.49396191  0.00393247 -0.00386111
   0.09112378  0.19923599  0.80822097
   0.03790444  0.06617548  0.59959862
   0.90332383  0.80020451  0.19782151
   0.80481785  0.59145160  0.39802245
   0.73304287  0.46553576  0.19801414
   0.66922658  0.33415177 -0.00167148
   0.36611928  0.72722340  0.60057183
   0.13051796  0.26989701  0.39888764
   0.83273274  0.66443090  0.00395851
   0.93674461  0.88008015  0.81416694
   0.56359125  0.13237769  0.19509177
   0.40651762  0.79417907  0.19821606
   0.44987402  0.85559578  0.79595669
   0.29964429  0.60107501  0.40111885
   0.86208381  0.73236447  0.59862497
   0.46310615  0.92921184  0.40540484
   0.18093618  0.34341304  0.00337689
   0.26769677  0.53718416  0.79836424
   0.19726206  0.39297335  0.59555958
   0.06248651  0.14326705  0.19745090
   0.77151162  0.52640873  0.80053306
   0.69507571  0.40630444  0.60354940
   0.58925962  0.20547329  0.79872857
   0.53904020  0.06711462  0.60308152
   0.32966267  0.66670616  0.00016984
   0.23223222  0.46850904  0.19950031
SQS with 1 vacancy for VFE and VRV      
           1
    -3.193896   -3.136680   -3.157227
     1.566805    1.675360   -7.970028
     7.925842   -7.884374   -1.476815
   Nb   Mo   Ta   Ti   W 
   5   6   6   6   6
Direct configuration=    19
   0.95799463  0.93192306  0.39122896
   0.63217194  0.26348328  0.40038297
   0.49280042  0.00392531 -0.00375104
   0.09092192  0.19920316  0.80811192
   0.03796964  0.06622483  0.59967420
   0.90319368  0.80017621  0.19766569
   0.80469155  0.59143260  0.39797054
   0.73313082  0.46556013  0.19787118
   0.66982249  0.33400553 -0.00169073
   0.36612689  0.72717199  0.60058283
   0.13041594  0.26948090  0.39885722
   0.83283052  0.66480826  0.00417990
   0.93676369  0.88054002  0.81429776
   0.56321866  0.13244655  0.19507133
   0.40668077  0.79419787  0.19833992
   0.44966048  0.85613238  0.79590523
   0.29983751  0.60081873  0.40102422
   0.86209913  0.73233670  0.59866346
   0.46321390  0.92896697  0.40544350
   0.18106292  0.34383938  0.00344319
   0.26790951  0.53726465  0.79842011
   0.19724967  0.39279002  0.59552449
   0.06232364  0.14304131  0.19707456
   0.77186425  0.52643519  0.80050251
   0.69533199  0.40598261  0.60364841
   0.58977562  0.20564243  0.79881520
   0.53902115  0.06687207  0.60297617
   0.32966201  0.66665792  0.00021450
   0.23225466  0.46863998  0.19955177
SQS with 1 vacancy for VFE and VRV      
           1
    -3.191917   -3.134905   -3.155450
     1.566166    1.673710   -7.965181
     7.921470   -7.879655   -1.476782
   Nb   Mo   Ta   Ti   W 
   5   6   6   6   6
Direct configuration=    20
   0.95803269  0.93186286  0.39118466
   0.63213158  0.26346986  0.40033308
   0.49259123  0.00402394 -0.00376765
   0.09118479  0.19936103  0.80810174
   0.03792513  0.06614848  0.59959911
   0.90327344  0.80021506  0.19774089
   0.80486867  0.59128326  0.39798049
   0.73317951  0.46549954  0.19790034
   0.66978122  0.33407852 -0.00168322
   0.36614301  0.72713271  0.60062220
   0.13044039  0.26958694  0.39883019
   0.83259404  0.66486615  0.00407336
   0.93668637  0.88059887  0.81435596
   0.56315447  0.13244553  0.19503349
   0.40662078  0.79404281  0.19831841
   0.44993057  0.85579066  0.79600446
   0.29980861  0.60082522  0.40109884
   0.86207579  0.73234414  0.59866760
   0.46314774  0.92895475  0.40547692
   0.18114177  0.34386718  0.00343831
   0.26804030  0.53731406  0.79843496
   0.19732412  0.39277517  0.59549626
   0.06224579  0.14303173  0.19699616
   0.77175570  0.52657877  0.80052964
   0.69528884  0.40607296  0.60362813
   0.58944513  0.20558742  0.79884100
   0.53914165  0.06695215  0.60301499
   0.32978982  0.66676246  0.00019217
   0.23225687  0.46852779  0.19955752
SQS with 1 vacancy for VFE and VRV      
           1
    -3.192513   -3.135440   -3.155986
     1.566359    1.674207   -7.966641
     7.922786   -7.881076   -1.476792
   Nb   Mo   Ta   Ti   W 
   5   6   6   6   6
Direct configuration=    21
   0.95802122  0.93188100  0.39119801
   0.63214374  0.26347390  0.40034811
   0.49265426  0.00399422 -0.00376264
   0.09110558  0.19931346  0.80810481
   0.03793854  0.06617148  0.59962174
   0.90324941  0.80020335  0.19771824
   0.80481530  0.59132826  0.39797749
   0.73316484  0.46551780  0.19789156
   0.66979366  0.33405652 -0.00168548
   0.36613815  0.72714455  0.60061034
   0.13043302  0.26955499  0.39883833
   0.83266529  0.66484870  0.00410546
   0.93670966  0.88058114  0.81433842
   0.56317381  0.13244584  0.19504489
   0.40663885  0.79408953  0.19832489
   0.44984918  0.85589363  0.79597455
   0.29981731  0.60082326  0.40107635
   0.86208282  0.73234190  0.59866635
   0.46316768  0.92895843  0.40546685
   0.18111802  0.34385881  0.00343978
   0.26800089  0.53729917  0.79843049
   0.19730169  0.39277964  0.59550477
   0.06226925  0.14303461  0.19701978
   0.77178841  0.52653550  0.80052147
   0.69530185  0.40604573  0.60363424
   0.58954471  0.20560399  0.79883323
   0.53910534  0.06692802  0.60300330
   0.32975131  0.66673096  0.00019890
   0.23225620  0.46856159  0.19955578
