  29  29   0   0
  0.1632129E+02  0.5473281E-09  0.8209921E-09  0.1128346E-08  0.5000000E-15
  1.000000000000000E-004
  CAR 
 Nb - Mo - Ta - Ti - V SQS               
     11.64504363    -50.42929109  301      6.59346378      1.00000000
    -50.429  0.0000E+00  0.0000E+00
    -50.222  0.0000E+00  0.0000E+00
    -50.015  0.0000E+00  0.0000E+00
    -49.809  0.0000E+00  0.0000E+00
    -49.602  0.0000E+00  0.0000E+00
    -49.395 -0.9368E-35 -0.1938E-35
    -49.188 -0.3177E-27 -0.6573E-28
    -48.981 -0.1221E-20 -0.2527E-21
    -48.774 -0.5323E-15 -0.1101E-15
    -48.567 -0.2661E-10 -0.5506E-11
    -48.360 -0.1511E-06 -0.3128E-07
    -48.153 -0.9284E-04 -0.1924E-04
    -47.946 -0.5307E-02 -0.1117E-02
    -47.739  0.4733E-02 -0.1381E-03
    -47.532  0.2694E+00  0.5560E-01
    -47.326  0.5320E+00  0.1657E+00
    -47.119  0.3611E+00  0.2404E+00
    -46.912  0.4824E-02  0.2414E+00
    -46.705 -0.6614E-02  0.2400E+00
    -46.498 -0.1108E-03  0.2400E+00
    -46.291 -0.1748E-06  0.2400E+00
    -46.084 -0.2990E-10  0.2400E+00
    -45.877 -0.6004E-15  0.2400E+00
    -45.670  0.0000E+00  0.2400E+00
    -45.463  0.0000E+00  0.2400E+00
    -45.256  0.0000E+00  0.2400E+00
    -45.050  0.0000E+00  0.2400E+00
    -44.843  0.0000E+00  0.2400E+00
    -44.636  0.0000E+00  0.2400E+00
    -44.429  0.0000E+00  0.2400E+00
    -44.222  0.0000E+00  0.2400E+00
    -44.015  0.0000E+00  0.2400E+00
    -43.808  0.0000E+00  0.2400E+00
    -43.601  0.0000E+00  0.2400E+00
    -43.394  0.0000E+00  0.2400E+00
    -43.187  0.0000E+00  0.2400E+00
    -42.980  0.0000E+00  0.2400E+00
    -42.773  0.0000E+00  0.2400E+00
    -42.567  0.0000E+00  0.2400E+00
    -42.360  0.0000E+00  0.2400E+00
    -42.153  0.0000E+00  0.2400E+00
    -41.946  0.0000E+00  0.2400E+00
    -41.739  0.0000E+00  0.2400E+00
    -41.532  0.0000E+00  0.2400E+00
    -41.325  0.0000E+00  0.2400E+00
    -41.118  0.0000E+00  0.2400E+00
    -40.911  0.0000E+00  0.2400E+00
    -40.704  0.0000E+00  0.2400E+00
    -40.497  0.0000E+00  0.2400E+00
    -40.290  0.0000E+00  0.2400E+00
    -40.084  0.0000E+00  0.2400E+00
    -39.877  0.0000E+00  0.2400E+00
    -39.670  0.0000E+00  0.2400E+00
    -39.463  0.0000E+00  0.2400E+00
    -39.256  0.0000E+00  0.2400E+00
    -39.049  0.0000E+00  0.2400E+00
    -38.842  0.0000E+00  0.2400E+00
    -38.635  0.0000E+00  0.2400E+00
    -38.428  0.0000E+00  0.2400E+00
    -38.221  0.0000E+00  0.2400E+00
    -38.014  0.0000E+00  0.2400E+00
    -37.808  0.0000E+00  0.2400E+00
    -37.601  0.0000E+00  0.2400E+00
    -37.394  0.0000E+00  0.2400E+00
    -37.187  0.0000E+00  0.2400E+00
    -36.980  0.0000E+00  0.2400E+00
    -36.773  0.0000E+00  0.2400E+00
    -36.566  0.0000E+00  0.2400E+00
    -36.359  0.0000E+00  0.2400E+00
    -36.152  0.0000E+00  0.2400E+00
    -35.945  0.0000E+00  0.2400E+00
    -35.738  0.0000E+00  0.2400E+00
    -35.531  0.0000E+00  0.2400E+00
    -35.325  0.0000E+00  0.2400E+00
    -35.118  0.0000E+00  0.2400E+00
    -34.911  0.0000E+00  0.2400E+00
    -34.704  0.0000E+00  0.2400E+00
    -34.497  0.0000E+00  0.2400E+00
    -34.290  0.0000E+00  0.2400E+00
    -34.083  0.0000E+00  0.2400E+00
    -33.876  0.0000E+00  0.2400E+00
    -33.669  0.0000E+00  0.2400E+00
    -33.462  0.0000E+00  0.2400E+00
    -33.255  0.0000E+00  0.2400E+00
    -33.048  0.0000E+00  0.2400E+00
    -32.842  0.0000E+00  0.2400E+00
    -32.635  0.0000E+00  0.2400E+00
    -32.428  0.0000E+00  0.2400E+00
    -32.221  0.0000E+00  0.2400E+00
    -32.014  0.0000E+00  0.2400E+00
    -31.807  0.0000E+00  0.2400E+00
    -31.600  0.0000E+00  0.2400E+00
    -31.393  0.0000E+00  0.2400E+00
    -31.186  0.0000E+00  0.2400E+00
    -30.979  0.0000E+00  0.2400E+00
    -30.772  0.0000E+00  0.2400E+00
    -30.566  0.0000E+00  0.2400E+00
    -30.359  0.0000E+00  0.2400E+00
    -30.152  0.0000E+00  0.2400E+00
    -29.945  0.0000E+00  0.2400E+00
    -29.738  0.0000E+00  0.2400E+00
    -29.531  0.0000E+00  0.2400E+00
    -29.324  0.0000E+00  0.2400E+00
    -29.117  0.0000E+00  0.2400E+00
    -28.910  0.0000E+00  0.2400E+00
    -28.703  0.0000E+00  0.2400E+00
    -28.496  0.0000E+00  0.2400E+00
    -28.289  0.0000E+00  0.2400E+00
    -28.083  0.0000E+00  0.2400E+00
    -27.876  0.0000E+00  0.2400E+00
    -27.669  0.0000E+00  0.2400E+00
    -27.462  0.0000E+00  0.2400E+00
    -27.255  0.0000E+00  0.2400E+00
    -27.048  0.0000E+00  0.2400E+00
    -26.841  0.0000E+00  0.2400E+00
    -26.634  0.0000E+00  0.2400E+00
    -26.427  0.0000E+00  0.2400E+00
    -26.220  0.0000E+00  0.2400E+00
    -26.013 -0.5516E-29  0.2400E+00
    -25.806 -0.2774E-22  0.2400E+00
    -25.600 -0.1617E-16  0.2400E+00
    -25.393 -0.1049E-11  0.2400E+00
    -25.186 -0.8016E-08  0.2400E+00
    -24.979 -0.6894E-05  0.2400E+00
    -24.772 -0.6035E-03  0.2399E+00
    -24.565 -0.1438E-02  0.2396E+00
    -24.358  0.3608E-01  0.2470E+00
    -24.151  0.8262E-01  0.2641E+00
    -23.944  0.2900E+00  0.3241E+00
    -23.737  0.6288E+00  0.4543E+00
    -23.530  0.9556E+00  0.6520E+00
    -23.323  0.8330E+00  0.8243E+00
    -23.117  0.4046E+00  0.9081E+00
    -22.910  0.2112E+00  0.9518E+00
    -22.703  0.4519E-01  0.9611E+00
    -22.496 -0.4742E-02  0.9601E+00
    -22.289 -0.6278E-03  0.9600E+00
    -22.082 -0.6598E-05  0.9600E+00
    -21.875 -0.7712E-08  0.9600E+00
    -21.668 -0.1023E-11  0.9600E+00
    -21.461 -0.1840E-16  0.9600E+00
    -21.254  0.0000E+00  0.9600E+00
    -21.047  0.0000E+00  0.9600E+00
    -20.841  0.0000E+00  0.9600E+00
    -20.634  0.0000E+00  0.9600E+00
    -20.427  0.0000E+00  0.9600E+00
    -20.220  0.0000E+00  0.9600E+00
    -20.013  0.0000E+00  0.9600E+00
    -19.806  0.0000E+00  0.9600E+00
    -19.599  0.0000E+00  0.9600E+00
    -19.392  0.0000E+00  0.9600E+00
    -19.185  0.0000E+00  0.9600E+00
    -18.978  0.0000E+00  0.9600E+00
    -18.771  0.0000E+00  0.9600E+00
    -18.564  0.0000E+00  0.9600E+00
    -18.358  0.0000E+00  0.9600E+00
    -18.151  0.0000E+00  0.9600E+00
    -17.944  0.0000E+00  0.9600E+00
    -17.737  0.0000E+00  0.9600E+00
    -17.530  0.0000E+00  0.9600E+00
    -17.323  0.0000E+00  0.9600E+00
    -17.116  0.0000E+00  0.9600E+00
    -16.909  0.0000E+00  0.9600E+00
    -16.702  0.0000E+00  0.9600E+00
    -16.495  0.0000E+00  0.9600E+00
    -16.288  0.0000E+00  0.9600E+00
    -16.081  0.0000E+00  0.9600E+00
    -15.875  0.0000E+00  0.9600E+00
    -15.668  0.0000E+00  0.9600E+00
    -15.461  0.0000E+00  0.9600E+00
    -15.254  0.0000E+00  0.9600E+00
    -15.047  0.0000E+00  0.9600E+00
    -14.840  0.0000E+00  0.9600E+00
    -14.633  0.0000E+00  0.9600E+00
    -14.426  0.0000E+00  0.9600E+00
    -14.219  0.0000E+00  0.9600E+00
    -14.012  0.0000E+00  0.9600E+00
    -13.805  0.0000E+00  0.9600E+00
    -13.599  0.0000E+00  0.9600E+00
    -13.392  0.0000E+00  0.9600E+00
    -13.185  0.0000E+00  0.9600E+00
    -12.978  0.0000E+00  0.9600E+00
    -12.771  0.0000E+00  0.9600E+00
    -12.564  0.0000E+00  0.9600E+00
    -12.357  0.0000E+00  0.9600E+00
    -12.150  0.0000E+00  0.9600E+00
    -11.943  0.0000E+00  0.9600E+00
    -11.736  0.0000E+00  0.9600E+00
    -11.529  0.0000E+00  0.9600E+00
    -11.322  0.0000E+00  0.9600E+00
    -11.116  0.0000E+00  0.9600E+00
    -10.909  0.0000E+00  0.9600E+00
    -10.702  0.0000E+00  0.9600E+00
    -10.495  0.0000E+00  0.9600E+00
    -10.288  0.0000E+00  0.9600E+00
    -10.081  0.0000E+00  0.9600E+00
     -9.874  0.0000E+00  0.9600E+00
     -9.667  0.0000E+00  0.9600E+00
     -9.460  0.0000E+00  0.9600E+00
     -9.253  0.0000E+00  0.9600E+00
     -9.046  0.0000E+00  0.9600E+00
     -8.839  0.0000E+00  0.9600E+00
     -8.633  0.0000E+00  0.9600E+00
     -8.426  0.0000E+00  0.9600E+00
     -8.219  0.0000E+00  0.9600E+00
     -8.012  0.0000E+00  0.9600E+00
     -7.805  0.0000E+00  0.9600E+00
     -7.598  0.0000E+00  0.9600E+00
     -7.391  0.0000E+00  0.9600E+00
     -7.184  0.0000E+00  0.9600E+00
     -6.977  0.0000E+00  0.9600E+00
     -6.770  0.0000E+00  0.9600E+00
     -6.563  0.0000E+00  0.9600E+00
     -6.357  0.0000E+00  0.9600E+00
     -6.150  0.0000E+00  0.9600E+00
     -5.943  0.0000E+00  0.9600E+00
     -5.736  0.0000E+00  0.9600E+00
     -5.529  0.0000E+00  0.9600E+00
     -5.322  0.0000E+00  0.9600E+00
     -5.115  0.0000E+00  0.9600E+00
     -4.908  0.0000E+00  0.9600E+00
     -4.701  0.0000E+00  0.9600E+00
     -4.494  0.0000E+00  0.9600E+00
     -4.287  0.0000E+00  0.9600E+00
     -4.080  0.0000E+00  0.9600E+00
     -3.874  0.0000E+00  0.9600E+00
     -3.667  0.0000E+00  0.9600E+00
     -3.460  0.0000E+00  0.9600E+00
     -3.253  0.0000E+00  0.9600E+00
     -3.046  0.0000E+00  0.9600E+00
     -2.839  0.0000E+00  0.9600E+00
     -2.632  0.0000E+00  0.9600E+00
     -2.425  0.0000E+00  0.9600E+00
     -2.218  0.0000E+00  0.9600E+00
     -2.011  0.0000E+00  0.9600E+00
     -1.804 -0.2965E-31  0.9600E+00
     -1.597 -0.1899E-24  0.9600E+00
     -1.391 -0.1436E-18  0.9600E+00
     -1.184 -0.1240E-13  0.9600E+00
     -0.977 -0.1303E-09  0.9600E+00
     -0.770 -0.1619E-06  0.9600E+00
     -0.563 -0.2339E-04  0.9600E+00
     -0.356 -0.3231E-03  0.9599E+00
     -0.149  0.1701E-02  0.9603E+00
      0.058  0.1494E-01  0.9634E+00
      0.265  0.2710E-01  0.9690E+00
      0.472  0.3619E-01  0.9765E+00
      0.679  0.4227E-01  0.9852E+00
      0.885  0.3991E-01  0.9935E+00
      1.092  0.4953E-01  0.1004E+01
      1.299  0.5654E-01  0.1015E+01
      1.506  0.6066E-01  0.1028E+01
      1.713  0.7076E-01  0.1043E+01
      1.920  0.8160E-01  0.1059E+01
      2.127  0.9953E-01  0.1080E+01
      2.334  0.1235E+00  0.1106E+01
      2.541  0.2024E+00  0.1148E+01
      2.748  0.3297E+00  0.1216E+01
      2.955  0.4512E+00  0.1309E+01
      3.162  0.5265E+00  0.1418E+01
      3.368  0.5517E+00  0.1532E+01
      3.575  0.5789E+00  0.1652E+01
      3.782  0.5861E+00  0.1773E+01
      3.989  0.6496E+00  0.1908E+01
      4.196  0.6434E+00  0.2041E+01
      4.403  0.5789E+00  0.2161E+01
      4.610  0.5302E+00  0.2270E+01
      4.817  0.6216E+00  0.2399E+01
      5.024  0.7641E+00  0.2557E+01
      5.231  0.8511E+00  0.2733E+01
      5.438  0.8257E+00  0.2904E+01
      5.645  0.7990E+00  0.3069E+01
      5.851  0.8069E+00  0.3236E+01
      6.058  0.8515E+00  0.3412E+01
      6.265  0.8718E+00  0.3593E+01
      6.472  0.8386E+00  0.3766E+01
      6.679  0.7560E+00  0.3923E+01
      6.886  0.6618E+00  0.4060E+01
      7.093  0.5483E+00  0.4173E+01
      7.300  0.4434E+00  0.4265E+01
      7.507  0.3695E+00  0.4341E+01
      7.714  0.3748E+00  0.4419E+01
      7.921  0.3933E+00  0.4500E+01
      8.127  0.4704E+00  0.4598E+01
      8.334  0.4678E+00  0.4694E+01
      8.541  0.3382E+00  0.4764E+01
      8.748  0.1589E+00  0.4797E+01
      8.955  0.1684E-01  0.4801E+01
      9.162 -0.3398E-02  0.4800E+01
      9.369 -0.2467E-03  0.4800E+01
      9.576 -0.2031E-05  0.4800E+01
      9.783 -0.2188E-08  0.4800E+01
      9.990 -0.2999E-12  0.4800E+01
     10.197 -0.5131E-17  0.4800E+01
     10.404  0.0000E+00  0.4800E+01
     10.610  0.0000E+00  0.4800E+01
     10.817  0.0000E+00  0.4800E+01
     11.024  0.0000E+00  0.4800E+01
     11.231  0.0000E+00  0.4800E+01
     11.438  0.0000E+00  0.4800E+01
     11.645  0.0000E+00  0.4800E+01
