   29   29   50    1
  0.1632129E+02  0.5473281E-09  0.8209921E-09  0.1128346E-08  0.5000000E-15
  1.000000000000000E-004
  CAR 
 Nb - Mo - Ta - Ti - V SQS               
    193    172    120
 
  0.0000000E+00  0.0000000E+00  0.0000000E+00  0.2915452E-02
    1      -47.607730   1.000000
    2      -47.579252   1.000000
    3      -47.394226   1.000000
    4      -47.367061   1.000000
    5      -47.281230   1.000000
    6      -47.251891   1.000000
    7      -24.405835   1.000000
    8      -24.046126   1.000000
    9      -23.944032   1.000000
   10      -23.848049   1.000000
   11      -23.752008   1.000000
   12      -23.741925   1.000000
   13      -23.733097   1.000000
   14      -23.609285   1.000000
   15      -23.554619   1.000000
   16      -23.544252   1.000000
   17      -23.518440   1.000000
   18      -23.481364   1.000000
   19      -23.426713   1.000000
   20      -23.411213   1.000000
   21      -23.264823   1.000000
   22      -23.239892   1.000000
   23      -23.046907   1.000000
   24      -22.861888   1.000000
   25       -0.178563   1.000000
   26        1.110089   1.000000
   27        1.438051   1.000000
   28        2.318662   1.000000
   29        2.391334   1.000000
   30        2.422017   1.000000
   31        2.578445   1.000000
   32        2.636141   1.000000
   33        2.766404   1.000000
   34        2.806797   1.000000
   35        2.861347   1.000000
   36        2.920682   1.000000
   37        2.948792   1.000000
   38        3.050749   1.000000
   39        3.067598   1.000000
   40        3.119839   1.000000
   41        3.203721   1.000000
   42        3.426146   1.000000
   43        3.491432   1.000000
   44        3.545052   1.000000
   45        3.616476   1.000000
   46        3.646997   1.000000
   47        3.723255   1.000000
   48        3.799812   1.000000
   49        3.886821   1.000000
   50        3.947360   1.000000
   51        4.014247   1.000000
   52        4.020867   1.000000
   53        4.055241   1.000000
   54        4.194078   1.000000
   55        4.316474   1.000000
   56        4.364368   1.000000
   57        4.398570   1.000000
   58        4.529962   1.000000
   59        4.547967   1.000000
   60        4.662167   1.000000
   61        4.712191   1.000000
   62        4.780714   1.000000
   63        4.824968   1.000000
   64        4.839341   1.000000
   65        4.972672   1.000000
   66        5.022362   1.000000
   67        5.061566   1.000000
   68        5.136439   1.000000
   69        5.172711   1.000000
   70        5.196838   1.000000
   71        5.250013   1.000000
   72        5.283882   1.000000
   73        5.321838   1.000000
   74        5.362181   1.000000
   75        5.433589   1.000000
   76        5.502327   1.000000
   77        5.621187   1.000000
   78        5.733555   1.000000
   79        5.802757   1.000000
   80        5.826145   1.000000
   81        5.846229   1.000001
   82        5.911359   1.000008
   83        5.941353   1.000020
   84        6.019627   1.000190
   85        6.060280   1.000535
   86        6.103408   1.001442
   87        6.165106   1.004924
   88        6.243357   1.016403
   89        6.269439   1.022138
   90        6.349937   1.035450
   91        6.434543   0.988655
   92        6.497631   0.858441
   93        6.559304   0.642232
   94        6.623939   0.372692
   95        6.675422   0.183385
   96        6.688789   0.143009
   97        6.836399  -0.035442
   98        6.915768  -0.022534
   99        6.943799  -0.016356
  100        6.985213  -0.009114
  101        7.056177  -0.002557
  102        7.102802  -0.000938
  103        7.261601  -0.000012
  104        7.399528  -0.000000
  105        7.447701  -0.000000
  106        7.524305  -0.000000
  107        7.645533  -0.000000
  108        7.766482  -0.000000
  109        7.800697  -0.000000
  110        8.148703  -0.000000
  111        8.163077  -0.000000
  112        8.338130  -0.000000
  113        8.367014  -0.000000
  114        8.502888  -0.000000
  115        8.549840  -0.000000
  116        8.563328  -0.000000
  117        8.602443  -0.000000
  118        8.692223  -0.000000
  119        8.751060  -0.000000
  120        8.779835  -0.000000
 
  0.1428571E+00  0.0000000E+00 -0.1561251E-16  0.5830904E-02
    1      -47.607284   1.000000
    2      -47.569598   1.000000
    3      -47.396233   1.000000
    4      -47.374718   1.000000
    5      -47.281244   1.000000
    6      -47.251803   1.000000
    7      -24.336846   1.000000
    8      -24.045313   1.000000
    9      -23.942313   1.000000
   10      -23.843397   1.000000
   11      -23.754694   1.000000
   12      -23.738645   1.000000
   13      -23.730672   1.000000
   14      -23.615156   1.000000
   15      -23.559664   1.000000
   16      -23.548252   1.000000
   17      -23.522082   1.000000
   18      -23.481677   1.000000
   19      -23.429266   1.000000
   20      -23.412908   1.000000
   21      -23.267483   1.000000
   22      -23.243041   1.000000
   23      -23.048442   1.000000
   24      -22.941261   1.000000
   25       -0.010823   1.000000
   26        1.263088   1.000000
   27        1.580242   1.000000
   28        2.376830   1.000000
   29        2.489179   1.000000
   30        2.557104   1.000000
   31        2.667514   1.000000
   32        2.745459   1.000000
   33        2.807985   1.000000
   34        2.926605   1.000000
   35        2.967290   1.000000
   36        2.999267   1.000000
   37        3.069218   1.000000
   38        3.165703   1.000000
   39        3.195773   1.000000
   40        3.238269   1.000000
   41        3.273819   1.000000
   42        3.438706   1.000000
   43        3.513836   1.000000
   44        3.597892   1.000000
   45        3.642220   1.000000
   46        3.692016   1.000000
   47        3.815991   1.000000
   48        3.900998   1.000000
   49        3.981792   1.000000
   50        4.019746   1.000000
   51        4.030737   1.000000
   52        4.118080   1.000000
   53        4.158642   1.000000
   54        4.208959   1.000000
   55        4.325399   1.000000
   56        4.343334   1.000000
   57        4.442345   1.000000
   58        4.569160   1.000000
   59        4.591298   1.000000
   60        4.681629   1.000000
   61        4.746737   1.000000
   62        4.838989   1.000000
   63        4.896440   1.000000
   64        4.952486   1.000000
   65        4.995429   1.000000
   66        5.048690   1.000000
   67        5.098440   1.000000
   68        5.154068   1.000000
   69        5.192221   1.000000
   70        5.259359   1.000000
   71        5.289033   1.000000
   72        5.354959   1.000000
   73        5.359845   1.000000
   74        5.424136   1.000000
   75        5.499737   1.000000
   76        5.543401   1.000000
   77        5.595248   1.000000
   78        5.690050   1.000000
   79        5.710684   1.000000
   80        5.731859   1.000000
   81        5.828671   1.000000
   82        5.862104   1.000001
   83        5.938822   1.000019
   84        6.004179   1.000126
   85        6.064425   1.000591
   86        6.089379   1.001056
   87        6.174349   1.005800
   88        6.212114   1.010679
   89        6.260141   1.020024
   90        6.310586   1.031234
   91        6.375459   1.032124
   92        6.435004   0.988051
   93        6.480636   0.903272
   94        6.514843   0.805888
   95        6.594917   0.493851
   96        6.645244   0.288829
   97        6.756121   0.006630
   98        6.794111  -0.025460
   99        6.888117  -0.028826
  100        6.947451  -0.015613
  101        7.000327  -0.007144
  102        7.047339  -0.003047
  103        7.163365  -0.000211
  104        7.205549  -0.000066
  105        7.314404  -0.000002
  106        7.442825  -0.000000
  107        7.453795  -0.000000
  108        7.554328  -0.000000
  109        7.669030  -0.000000
  110        7.966740  -0.000000
  111        8.086967  -0.000000
  112        8.131591  -0.000000
  113        8.165447  -0.000000
  114        8.211022  -0.000000
  115        8.333841  -0.000000
  116        8.388170  -0.000000
  117        8.405941  -0.000000
  118        8.463784  -0.000000
  119        8.478131  -0.000000
  120        8.533063  -0.000000
 
  0.2857143E+00  0.1387779E-16  0.3469447E-17  0.5830904E-02
    1      -47.606280   1.000000
    2      -47.542798   1.000000
    3      -47.412859   1.000000
    4      -47.385018   1.000000
    5      -47.281199   1.000000
    6      -47.251575   1.000000
    7      -24.144277   1.000000
    8      -24.042029   1.000000
    9      -23.937655   1.000000
   10      -23.831172   1.000000
   11      -23.764782   1.000000
   12      -23.738170   1.000000
   13      -23.709707   1.000000
   14      -23.629127   1.000000
   15      -23.581456   1.000000
   16      -23.552198   1.000000
   17      -23.529275   1.000000
   18      -23.482714   1.000000
   19      -23.435029   1.000000
   20      -23.417393   1.000000
   21      -23.278007   1.000000
   22      -23.252785   1.000000
   23      -23.161377   1.000000
   24      -23.042678   1.000000
   25        0.463813   1.000000
   26        1.663863   1.000000
   27        1.956890   1.000000
   28        2.522742   1.000000
   29        2.630754   1.000000
   30        2.819816   1.000000
   31        2.853105   1.000000
   32        2.970149   1.000000
   33        3.034791   1.000000
   34        3.091103   1.000000
   35        3.164933   1.000000
   36        3.219841   1.000000
   37        3.290393   1.000000
   38        3.354208   1.000000
   39        3.407723   1.000000
   40        3.467043   1.000000
   41        3.559142   1.000000
   42        3.595751   1.000000
   43        3.667819   1.000000
   44        3.729853   1.000000
   45        3.792328   1.000000
   46        3.854301   1.000000
   47        3.911426   1.000000
   48        4.005865   1.000000
   49        4.107823   1.000000
   50        4.162930   1.000000
   51        4.223154   1.000000
   52        4.295123   1.000000
   53        4.327010   1.000000
   54        4.383843   1.000000
   55        4.400825   1.000000
   56        4.460609   1.000000
   57        4.550799   1.000000
   58        4.667761   1.000000
   59        4.675932   1.000000
   60        4.779195   1.000000
   61        4.852607   1.000000
   62        4.944621   1.000000
   63        4.991452   1.000000
   64        5.006245   1.000000
   65        5.084703   1.000000
   66        5.121459   1.000000
   67        5.158046   1.000000
   68        5.190777   1.000000
   69        5.266543   1.000000
   70        5.280645   1.000000
   71        5.326918   1.000000
   72        5.381742   1.000000
   73        5.436970   1.000000
   74        5.481428   1.000000
   75        5.539164   1.000000
   76        5.586546   1.000000
   77        5.616401   1.000000
   78        5.677264   1.000000
   79        5.693251   1.000000
   80        5.733612   1.000000
   81        5.783114   1.000000
   82        5.815565   1.000000
   83        5.853575   1.000001
   84        5.983570   1.000071
   85        6.006149   1.000133
   86        6.074523   1.000751
   87        6.114825   1.001841
   88        6.167722   1.005160
   89        6.251829   1.018193
   90        6.284780   1.025681
   91        6.336306   1.034930
   92        6.379840   1.030828
   93        6.415803   1.009319
   94        6.458997   0.949842
   95        6.475011   0.916514
   96        6.521644   0.783263
   97        6.563797   0.624011
   98        6.647960   0.278624
   99        6.689552   0.140835
  100        6.771621  -0.009769
  101        6.855268  -0.034484
  102        6.884062  -0.029687
  103        6.995435  -0.007743
  104        7.030973  -0.004165
  105        7.084035  -0.001426
  106        7.178545  -0.000141
  107        7.214716  -0.000051
  108        7.325017  -0.000001
  109        7.378730  -0.000000
  110        7.503003  -0.000000
  111        7.586077  -0.000000
  112        7.684728  -0.000000
  113        7.769956  -0.000000
  114        7.805200  -0.000000
  115        7.890898  -0.000000
  116        7.990435  -0.000000
  117        8.044672  -0.000000
  118        8.171660  -0.000000
  119        8.241334  -0.000000
  120        8.299411  -0.000000
 
  0.4285714E+00  0.5551115E-16 -0.4163336E-16  0.5830904E-02
    1      -47.605474   1.000000
    2      -47.507104   1.000000
    3      -47.446865   1.000000
    4      -47.386886   1.000000
    5      -47.281108   1.000000
    6      -47.251369   1.000000
    7      -24.046450   1.000000
    8      -23.945654   1.000000
    9      -23.863685   1.000000
   10      -23.798279   1.000000
   11      -23.772887   1.000000
   12      -23.738848   1.000000
   13      -23.680665   1.000000
   14      -23.640379   1.000000
   15      -23.612283   1.000000
   16      -23.554794   1.000000
   17      -23.534401   1.000000
   18      -23.506019   1.000000
   19      -23.474877   1.000000
   20      -23.438164   1.000000
   21      -23.413595   1.000000
   22      -23.272001   1.000000
   23      -23.246959   1.000000
   24      -23.044798   1.000000
   25        1.156063   1.000000
   26        1.857244   1.000000
   27        2.319593   1.000000
   28        2.495114   1.000000
   29        2.788909   1.000000
   30        2.820991   1.000000
   31        3.015668   1.000000
   32        3.133733   1.000000
   33        3.189073   1.000000
   34        3.244641   1.000000
   35        3.322555   1.000000
   36        3.414131   1.000000
   37        3.481581   1.000000
   38        3.546950   1.000000
   39        3.592933   1.000000
   40        3.671266   1.000000
   41        3.723177   1.000000
   42        3.793454   1.000000
   43        3.867819   1.000000
   44        3.890497   1.000000
   45        3.975572   1.000000
   46        3.990730   1.000000
   47        4.067159   1.000000
   48        4.115351   1.000000
   49        4.195712   1.000000
   50        4.256423   1.000000
   51        4.312427   1.000000
   52        4.348971   1.000000
   53        4.481320   1.000000
   54        4.581957   1.000000
   55        4.600551   1.000000
   56        4.658748   1.000000
   57        4.722395   1.000000
   58        4.778007   1.000000
   59        4.808181   1.000000
   60        4.852227   1.000000
   61        4.897643   1.000000
   62        4.919897   1.000000
   63        4.979462   1.000000
   64        5.026811   1.000000
   65        5.032496   1.000000
   66        5.098587   1.000000
   67        5.138348   1.000000
   68        5.160486   1.000000
   69        5.251161   1.000000
   70        5.296156   1.000000
   71        5.363160   1.000000
   72        5.414670   1.000000
   73        5.469354   1.000000
   74        5.525709   1.000000
   75        5.562671   1.000000
   76        5.583548   1.000000
   77        5.610660   1.000000
   78        5.640630   1.000000
   79        5.706930   1.000000
   80        5.787383   1.000000
   81        5.798777   1.000000
   82        5.836082   1.000001
   83        5.917803   1.000010
   84        5.996291   1.000101
   85        6.010484   1.000149
   86        6.079818   1.000849
   87        6.113369   1.001786
   88        6.173351   1.005700
   89        6.227459   1.013304
   90        6.256227   1.019154
   91        6.262102   1.020465
   92        6.342638   1.035330
   93        6.376419   1.031861
   94        6.411822   1.012793
   95        6.451840   0.962677
   96        6.510838   0.818730
   97        6.556685   0.652745
   98        6.579121   0.560517
   99        6.625521   0.366267
  100        6.672266   0.193524
  101        6.729165   0.047855
  102        6.807761  -0.031044
  103        6.870527  -0.032296
  104        6.906632  -0.024647
  105        6.993465  -0.007994
  106        7.073470  -0.001789
  107        7.094676  -0.001127
  108        7.127422  -0.000525
  109        7.187936  -0.000109
  110        7.367036  -0.000000
  111        7.425523  -0.000000
  112        7.429823  -0.000000
  113        7.539531  -0.000000
  114        7.595360  -0.000000
  115        7.707112  -0.000000
  116        7.759398  -0.000000
  117        7.887963  -0.000000
  118        7.987213  -0.000000
  119        8.010773  -0.000000
  120        8.129470  -0.000000
 
 -0.6938894E-17  0.1428571E+00  0.1040834E-16  0.5830904E-02
    1      -47.607674   1.000000
    2      -47.579250   1.000000
    3      -47.394233   1.000000
    4      -47.367062   1.000000
    5      -47.281265   1.000000
    6      -47.251905   1.000000
    7      -24.405838   1.000000
    8      -24.044587   1.000000
    9      -23.942901   1.000000
   10      -23.848009   1.000000
   11      -23.752046   1.000000
   12      -23.741988   1.000000
   13      -23.733111   1.000000
   14      -23.609297   1.000000
   15      -23.554657   1.000000
   16      -23.544261   1.000000
   17      -23.518462   1.000000
   18      -23.481351   1.000000
   19      -23.426694   1.000000
   20      -23.411242   1.000000
   21      -23.265355   1.000000
   22      -23.242363   1.000000
   23      -23.047021   1.000000
   24      -22.861894   1.000000
   25       -0.115343   1.000000
   26        1.135018   1.000000
   27        1.495207   1.000000
   28        2.087842   1.000000
   29        2.349270   1.000000
   30        2.453413   1.000000
   31        2.555406   1.000000
   32        2.647666   1.000000
   33        2.776220   1.000000
   34        2.826970   1.000000
   35        2.854214   1.000000
   36        2.902878   1.000000
   37        2.965924   1.000000
   38        3.049602   1.000000
   39        3.079264   1.000000
   40        3.179770   1.000000
   41        3.248258   1.000000
   42        3.388608   1.000000
   43        3.463246   1.000000
   44        3.494400   1.000000
   45        3.578193   1.000000
   46        3.657005   1.000000
   47        3.763324   1.000000
   48        3.807528   1.000000
   49        3.891643   1.000000
   50        3.941303   1.000000
   51        4.027702   1.000000
   52        4.054011   1.000000
   53        4.100063   1.000000
   54        4.212379   1.000000
   55        4.296668   1.000000
   56        4.371401   1.000000
   57        4.430575   1.000000
   58        4.540870   1.000000
   59        4.575572   1.000000
   60        4.676535   1.000000
   61        4.751355   1.000000
   62        4.794711   1.000000
   63        4.840504   1.000000
   64        4.894813   1.000000
   65        4.988113   1.000000
   66        5.019319   1.000000
   67        5.075678   1.000000
   68        5.089708   1.000000
   69        5.181322   1.000000
   70        5.224333   1.000000
   71        5.248771   1.000000
   72        5.309266   1.000000
   73        5.358215   1.000000
   74        5.394796   1.000000
   75        5.428358   1.000000
   76        5.515537   1.000000
   77        5.640739   1.000000
   78        5.732600   1.000000
   79        5.756202   1.000000
   80        5.840005   1.000001
   81        5.891664   1.000004
   82        5.931026   1.000015
   83        5.942900   1.000021
   84        6.015123   1.000169
   85        6.050516   1.000421
   86        6.087795   1.001019
   87        6.136531   1.002869
   88        6.176146   1.005984
   89        6.261315   1.020288
   90        6.294374   1.027854
   91        6.384644   1.029119
   92        6.442421   0.977686
   93        6.495107   0.865551
   94        6.543527   0.704174
   95        6.627280   0.359156
   96        6.675758   0.182319
   97        6.764660  -0.003016
   98        6.843518  -0.035361
   99        6.922640  -0.020960
  100        7.034005  -0.003936
  101        7.113232  -0.000736
  102        7.237007  -0.000026
  103        7.320981  -0.000002
  104        7.397999  -0.000000
  105        7.445433  -0.000000
  106        7.601314  -0.000000
  107        7.652614  -0.000000
  108        7.698044  -0.000000
  109        7.791696  -0.000000
  110        7.963983  -0.000000
  111        8.189249  -0.000000
  112        8.243320  -0.000000
  113        8.290806  -0.000000
  114        8.326848  -0.000000
  115        8.425300  -0.000000
  116        8.504139  -0.000000
  117        8.553783  -0.000000
  118        8.595830  -0.000000
  119        8.662520  -0.000000
  120        8.681081  -0.000000
 
  0.1428571E+00  0.1428571E+00 -0.1387779E-16  0.5830904E-02
    1      -47.607338   1.000000
    2      -47.569599   1.000000
    3      -47.396229   1.000000
    4      -47.374715   1.000000
    5      -47.281212   1.000000
    6      -47.251788   1.000000
    7      -24.336838   1.000000
    8      -24.046818   1.000000
    9      -23.943433   1.000000
   10      -23.843439   1.000000
   11      -23.754693   1.000000
   12      -23.738626   1.000000
   13      -23.730654   1.000000
   14      -23.615147   1.000000
   15      -23.559620   1.000000
   16      -23.548239   1.000000
   17      -23.522056   1.000000
   18      -23.481688   1.000000
   19      -23.429253   1.000000
   20      -23.412869   1.000000
   21      -23.266990   1.000000
   22      -23.240619   1.000000
   23      -23.048336   1.000000
   24      -22.941257   1.000000
   25       -0.009204   1.000000
   26        1.239290   1.000000
   27        1.598489   1.000000
   28        2.369759   1.000000
   29        2.504921   1.000000
   30        2.540081   1.000000
   31        2.641580   1.000000
   32        2.734318   1.000000
   33        2.788179   1.000000
   34        2.874647   1.000000
   35        2.910195   1.000000
   36        2.980620   1.000000
   37        3.064019   1.000000
   38        3.134181   1.000000
   39        3.185530   1.000000
   40        3.219703   1.000000
   41        3.304724   1.000000
   42        3.497849   1.000000
   43        3.515038   1.000000
   44        3.604664   1.000000
   45        3.651417   1.000000
   46        3.672372   1.000000
   47        3.794192   1.000000
   48        3.904355   1.000000
   49        3.951201   1.000000
   50        3.996901   1.000000
   51        4.064051   1.000000
   52        4.094298   1.000000
   53        4.160102   1.000000
   54        4.216034   1.000000
   55        4.350763   1.000000
   56        4.432976   1.000000
   57        4.496496   1.000000
   58        4.580745   1.000000
   59        4.625154   1.000000
   60        4.737856   1.000000
   61        4.755151   1.000000
   62        4.809362   1.000000
   63        4.855951   1.000000
   64        4.890997   1.000000
   65        5.002312   1.000000
   66        5.043722   1.000000
   67        5.090727   1.000000
   68        5.137396   1.000000
   69        5.177254   1.000000
   70        5.210590   1.000000
   71        5.249885   1.000000
   72        5.287114   1.000000
   73        5.362466   1.000000
   74        5.399511   1.000000
   75        5.461861   1.000000
   76        5.560407   1.000000
   77        5.593196   1.000000
   78        5.659298   1.000000
   79        5.687957   1.000000
   80        5.770775   1.000000
   81        5.850527   1.000001
   82        5.874246   1.000002
   83        5.958661   1.000034
   84        5.984058   1.000072
   85        6.044248   1.000360
   86        6.098712   1.001301
   87        6.154069   1.004021
   88        6.239396   1.015597
   89        6.252168   1.018266
   90        6.334575   1.034778
   91        6.414254   1.010706
   92        6.447477   0.969890
   93        6.497426   0.859022
   94        6.577967   0.565357
   95        6.613941   0.413854
   96        6.711738   0.083895
   97        6.747752   0.017625
   98        6.835977  -0.035435
   99        6.897882  -0.026657
  100        6.959951  -0.013216
  101        7.005700  -0.006528
  102        7.052450  -0.002755
  103        7.143590  -0.000352
  104        7.230732  -0.000032
  105        7.296329  -0.000004
  106        7.445149  -0.000000
  107        7.472053  -0.000000
  108        7.568510  -0.000000
  109        7.659200  -0.000000
  110        7.811358  -0.000000
  111        8.117282  -0.000000
  112        8.204712  -0.000000
  113        8.223789  -0.000000
  114        8.344547  -0.000000
  115        8.401593  -0.000000
  116        8.452422  -0.000000
  117        8.532062  -0.000000
  118        8.599619  -0.000000
  119        8.676748  -0.000000
  120        8.696304  -0.000000
 
  0.2857143E+00  0.1428571E+00  0.2775558E-16  0.5830904E-02
    1      -47.606403   1.000000
    2      -47.542802   1.000000
    3      -47.412859   1.000000
    4      -47.385000   1.000000
    5      -47.281125   1.000000
    6      -47.251542   1.000000
    7      -24.144282   1.000000
    8      -24.045450   1.000000
    9      -23.940228   1.000000
   10      -23.831229   1.000000
   11      -23.764782   1.000000
   12      -23.738139   1.000000
   13      -23.709614   1.000000
   14      -23.629096   1.000000
   15      -23.581377   1.000000
   16      -23.552178   1.000000
   17      -23.529210   1.000000
   18      -23.482737   1.000000
   19      -23.435029   1.000000
   20      -23.417317   1.000000
   21      -23.277285   1.000000
   22      -23.246877   1.000000
   23      -23.161271   1.000000
   24      -23.042466   1.000000
   25        0.408572   1.000000
   26        1.583512   1.000000
   27        1.936260   1.000000
   28        2.539463   1.000000
   29        2.682102   1.000000
   30        2.790244   1.000000
   31        2.879186   1.000000
   32        2.926767   1.000000
   33        3.036268   1.000000
   34        3.080381   1.000000
   35        3.141126   1.000000
   36        3.208410   1.000000
   37        3.278028   1.000000
   38        3.305773   1.000000
   39        3.426036   1.000000
   40        3.464974   1.000000
   41        3.538966   1.000000
   42        3.554997   1.000000
   43        3.652076   1.000000
   44        3.783391   1.000000
   45        3.815368   1.000000
   46        3.880094   1.000000
   47        3.928351   1.000000
   48        4.047589   1.000000
   49        4.064271   1.000000
   50        4.136822   1.000000
   51        4.183858   1.000000
   52        4.253579   1.000000
   53        4.293961   1.000000
   54        4.398930   1.000000
   55        4.411431   1.000000
   56        4.480870   1.000000
   57        4.538625   1.000000
   58        4.664788   1.000000
   59        4.726545   1.000000
   60        4.812884   1.000000
   61        4.870853   1.000000
   62        4.914324   1.000000
   63        4.971464   1.000000
   64        5.010674   1.000000
   65        5.035286   1.000000
   66        5.111824   1.000000
   67        5.117241   1.000000
   68        5.168399   1.000000
   69        5.227509   1.000000
   70        5.256899   1.000000
   71        5.316257   1.000000
   72        5.360867   1.000000
   73        5.419988   1.000000
   74        5.459640   1.000000
   75        5.489295   1.000000
   76        5.533178   1.000000
   77        5.606496   1.000000
   78        5.644089   1.000000
   79        5.700847   1.000000
   80        5.747326   1.000000
   81        5.846391   1.000001
   82        5.908785   1.000007
   83        5.936006   1.000017
   84        6.013892   1.000163
   85        6.068837   1.000656
   86        6.095465   1.001211
   87        6.128499   1.002443
   88        6.166656   1.005063
   89        6.195739   1.008293
   90        6.253688   1.018596
   91        6.294477   1.027877
   92        6.348212   1.035458
   93        6.372154   1.032944
   94        6.429887   0.994483
   95        6.476794   0.912402
   96        6.536277   0.731359
   97        6.557293   0.650309
   98        6.677204   0.177759
   99        6.720085   0.065683
  100        6.773300  -0.011255
  101        6.871381  -0.032146
  102        6.917479  -0.022140
  103        6.936688  -0.017850
  104        6.981890  -0.009595
  105        7.130562  -0.000486
  106        7.168608  -0.000184
  107        7.244106  -0.000021
  108        7.347720  -0.000001
  109        7.408169  -0.000000
  110        7.584481  -0.000000
  111        7.640289  -0.000000
  112        7.854592  -0.000000
  113        7.925371  -0.000000
  114        8.036160  -0.000000
  115        8.128689  -0.000000
  116        8.174645  -0.000000
  117        8.229401  -0.000000
  118        8.299236  -0.000000
  119        8.348021  -0.000000
  120        8.400884  -0.000000
 
  0.4285714E+00  0.1428571E+00 -0.2081668E-16  0.5830904E-02
    1      -47.605573   1.000000
    2      -47.507107   1.000000
    3      -47.446866   1.000000
    4      -47.386870   1.000000
    5      -47.281049   1.000000
    6      -47.251343   1.000000
    7      -24.048886   1.000000
    8      -23.947979   1.000000
    9      -23.863844   1.000000
   10      -23.798276   1.000000
   11      -23.772897   1.000000
   12      -23.738827   1.000000
   13      -23.680595   1.000000
   14      -23.640328   1.000000
   15      -23.612232   1.000000
   16      -23.554786   1.000000
   17      -23.534344   1.000000
   18      -23.506016   1.000000
   19      -23.474886   1.000000
   20      -23.438167   1.000000
   21      -23.413538   1.000000
   22      -23.269118   1.000000
   23      -23.244381   1.000000
   24      -23.044625   1.000000
   25        1.067927   1.000000
   26        1.864422   1.000000
   27        2.258559   1.000000
   28        2.476928   1.000000
   29        2.640412   1.000000
   30        2.869056   1.000000
   31        2.983686   1.000000
   32        3.177260   1.000000
   33        3.253403   1.000000
   34        3.270578   1.000000
   35        3.339404   1.000000
   36        3.461302   1.000000
   37        3.507439   1.000000
   38        3.541965   1.000000
   39        3.588321   1.000000
   40        3.672519   1.000000
   41        3.723082   1.000000
   42        3.808339   1.000000
   43        3.896752   1.000000
   44        3.910863   1.000000
   45        3.942567   1.000000
   46        4.011798   1.000000
   47        4.060651   1.000000