 running on   96 total cores
 distrk:  each k-point on   96 cores,    1 groups
 distr:  one band on    8 cores,   12 groups
 using from now: INCAR     
 vasp.5.4.4.18Apr17-6-g9f103f2a35 (build Aug 09 2018 16:20:53) complex          
  
 POSCAR found :  5 types and      29 ions
 scaLAPACK will be used

 ----------------------------------------------------------------------------- 
|                                                                             |
|  ADVICE TO THIS USER RUNNING 'VASP/VAMP'   (HEAR YOUR MASTER'S VOICE ...):  |
|                                                                             |
|      You enforced a specific xc-type in the INCAR file,                     |
|      a different type was found on the POTCAR file                          |
|          I HOPE YOU KNOW, WHAT YOU ARE  DOING                               |
|                                                                             |
 ----------------------------------------------------------------------------- 

 LDA part: xc-table for Pade appr. of Perdew
 POSCAR found :  5 types and      29 ions
 POSCAR, INCAR and KPOINTS ok, starting setup
 FFT: planning ...
 WAVECAR not read
 initial charge from wavefunction
 entering main loop
       N       E                     dE             d eps       ncg     rms          rms(c)
DAV:   1    -0.399137769477E+04   -0.39914E+04   -0.16277E+05 60360   0.197E+03
DAV:   2    -0.955262348664E+04   -0.55612E+04   -0.52982E+04 68436   0.121E+03
DAV:   3    -0.104660836455E+05   -0.91346E+03   -0.87553E+03 82560   0.539E+02
DAV:   4    -0.107316401333E+05   -0.26556E+03   -0.24841E+03 82560   0.254E+02
DAV:   5    -0.108853728460E+05   -0.15373E+03   -0.14153E+03 82560   0.181E+02BRMIX: very serious problems
 the old and the new charge density differ
 old charge density:   192.50000 new  193.00000
    0.687E+03
DAV:   6    -0.722993024702E+03    0.10162E+05   -0.26814E+04 62760   0.652E+02    0.310E+03
DAV:   7    -0.720292509798E+03    0.27005E+01   -0.19766E+04 74640   0.643E+02    0.230E+03
DAV:   8    -0.597620324954E+03    0.12267E+03   -0.58557E+03 72996   0.392E+02    0.209E+03
DAV:   9    -0.486886940430E+03    0.11073E+03   -0.90073E+02 68916   0.969E+01    0.198E+03
DAV:  10    -0.570783507974E+03   -0.83897E+02   -0.25920E+02 82188   0.518E+01    0.205E+03
DAV:  11    -0.671939380739E+03   -0.10116E+03   -0.73361E+02 74316   0.997E+01    0.179E+03
DAV:  12    -0.910572468191E+03   -0.23863E+03   -0.22674E+03 73944   0.323E+02    0.118E+03
DAV:  13    -0.827339297143E+03    0.83233E+02   -0.15385E+03 76080   0.128E+02    0.715E+02
DAV:  14    -0.682374466801E+03    0.14496E+03   -0.11411E+03 68760   0.156E+02    0.445E+02
DAV:  15    -0.524372005680E+03    0.15800E+03   -0.74726E+02 77988   0.106E+02    0.337E+02
DAV:  16    -0.479400627448E+03    0.44971E+02   -0.76266E+02 75852   0.142E+02    0.255E+02
DAV:  17    -0.415167790054E+03    0.64233E+02   -0.44908E+02 68484   0.106E+02    0.205E+02
DAV:  18    -0.407061555722E+03    0.81062E+01   -0.81687E+02 74496   0.922E+01    0.233E+02
DAV:  19    -0.394590661108E+03    0.12471E+02   -0.22175E+02 72720   0.539E+01    0.175E+02
DAV:  20    -0.378053427196E+03    0.16537E+02   -0.10826E+02 71148   0.489E+01    0.147E+02
DAV:  21    -0.357132393964E+03    0.20921E+02   -0.10507E+02 73416   0.368E+01    0.130E+02
DAV:  22    -0.323587013287E+03    0.33545E+02   -0.14464E+02 75456   0.680E+01    0.864E+01
DAV:  23    -0.314843527756E+03    0.87435E+01   -0.14305E+02 73512   0.552E+01    0.718E+01
DAV:  24    -0.310051586746E+03    0.47919E+01   -0.46999E+01 72972   0.202E+01    0.681E+01
DAV:  25    -0.308037520288E+03    0.20141E+01   -0.10794E+01 73116   0.125E+01    0.576E+01
DAV:  26    -0.307655378074E+03    0.38214E+00   -0.22288E+01 73572   0.192E+01    0.515E+01
DAV:  27    -0.305032839921E+03    0.26225E+01   -0.14774E+01 70932   0.157E+01    0.369E+01
DAV:  28    -0.304655653988E+03    0.37719E+00   -0.55185E+00 70080   0.934E+00    0.308E+01
DAV:  29    -0.304545766307E+03    0.10989E+00   -0.56042E+00 68148   0.110E+01    0.268E+01
DAV:  30    -0.303905414378E+03    0.64035E+00   -0.20545E+00 73236   0.679E+00    0.234E+01
DAV:  31    -0.303753970956E+03    0.15144E+00   -0.12866E+00 74280   0.404E+00    0.198E+01
DAV:  32    -0.303672031728E+03    0.81939E-01   -0.56146E-01 75684   0.243E+00    0.167E+01
DAV:  33    -0.303448509402E+03    0.22352E+00   -0.15560E+00 67008   0.585E+00    0.126E+01
DAV:  34    -0.303426448276E+03    0.22061E-01   -0.65416E-01 72552   0.337E+00    0.920E+00
DAV:  35    -0.303384980863E+03    0.41467E-01   -0.21153E-01 72828   0.169E+00    0.791E+00
DAV:  36    -0.303343628263E+03    0.41353E-01   -0.30572E-01 69624   0.220E+00    0.618E+00
DAV:  37    -0.303341230811E+03    0.23975E-02   -0.42415E-02 76212   0.710E-01    0.597E+00
DAV:  38    -0.303363892088E+03   -0.22661E-01   -0.43915E-01 64956   0.267E+00    0.551E+00
DAV:  39    -0.303349249529E+03    0.14643E-01   -0.90355E-02 72408   0.111E+00    0.495E+00
DAV:  40    -0.303332744450E+03    0.16505E-01   -0.47121E-02 67992   0.786E-01    0.450E+00
DAV:  41    -0.303274815105E+03    0.57929E-01   -0.12830E-01 67488   0.139E+00    0.303E+00
DAV:  42    -0.303270250078E+03    0.45650E-02   -0.18200E-02 76488   0.507E-01    0.260E+00
DAV:  43    -0.303274860593E+03   -0.46105E-02   -0.84842E-03 69672   0.344E-01    0.246E+00
DAV:  44    -0.303266696701E+03    0.81639E-02   -0.63348E-03 62784   0.342E-01    0.204E+00
DAV:  45    -0.303259708457E+03    0.69882E-02   -0.78312E-03 65940   0.346E-01    0.159E+00
DAV:  46    -0.303257696773E+03    0.20117E-02   -0.17878E-03 62460   0.175E-01    0.128E+00
DAV:  47    -0.303254913814E+03    0.27830E-02   -0.36699E-03 61128   0.238E-01    0.933E-01
DAV:  48    -0.303253894253E+03    0.10196E-02   -0.16003E-03 60816   0.156E-01    0.669E-01
DAV:  49    -0.303253367082E+03    0.52717E-03   -0.71722E-04 48168   0.111E-01    0.516E-01
DAV:  50    -0.303253258546E+03    0.10854E-03   -0.26552E-04 30696   0.835E-02    0.426E-01
DAV:  51    -0.303253139561E+03    0.11899E-03   -0.14807E-03 57912   0.146E-01    0.304E-01
DAV:  52    -0.303253125117E+03    0.14444E-04   -0.94108E-05 27996   0.472E-02
   1 F= -.30325313E+03 E0= -.30324367E+03  d E =-.303253E+03
 curvature:   0.00 expect dE= 0.000E+00 dE for cont linesearch  0.000E+00
 trial: gam= 0.00000 g(F)=  0.648E+00 g(S)=  0.288E+00 ort = 0.000E+00 (trialstep = 0.100E+01)
 search vector abs. value=  0.937E+00
 bond charge predicted
       N       E                     dE             d eps       ncg     rms          rms(c)
DAV:   1    -0.304444443318E+03   -0.11913E+01   -0.11810E+02 49236   0.453E+01    0.110E+01
DAV:   2    -0.305539821374E+03   -0.10954E+01   -0.24235E+01 74088   0.246E+01    0.983E+00
DAV:   3    -0.304650139735E+03    0.88968E+00   -0.16386E+01 72564   0.168E+01    0.890E+00
DAV:   4    -0.304340798719E+03    0.30934E+00   -0.11796E+01 70068   0.157E+01    0.726E+00
DAV:   5    -0.303852558871E+03    0.48824E+00   -0.54161E+00 72684   0.935E+00    0.378E+00
DAV:   6    -0.303776181367E+03    0.76378E-01   -0.20619E+00 73860   0.639E+00    0.312E+00
DAV:   7    -0.303712785812E+03    0.63396E-01   -0.10852E+00 80712   0.464E+00    0.230E+00
DAV:   8    -0.303700302227E+03    0.12484E-01   -0.55465E-01 74928   0.326E+00    0.187E+00
DAV:   9    -0.303680607190E+03    0.19695E-01   -0.24508E-01 72780   0.213E+00    0.112E+00
DAV:  10    -0.303676580657E+03    0.40265E-02   -0.90073E-02 73896   0.124E+00    0.823E-01
DAV:  11    -0.303681309190E+03   -0.47285E-02   -0.51158E-02 75096   0.806E-01    0.691E-01
DAV:  12    -0.303686572026E+03   -0.52628E-02   -0.64449E-02 70092   0.116E+00    0.753E-01
DAV:  13    -0.303682225248E+03    0.43468E-02   -0.40764E-02 72696   0.939E-01    0.275E-01
DAV:  14    -0.303682160534E+03    0.64714E-04   -0.16280E-02 71940   0.460E-01    0.244E-01
DAV:  15    -0.303681822363E+03    0.33817E-03   -0.68776E-03 60348   0.381E-01    0.172E-01
DAV:  16    -0.303681595264E+03    0.22710E-03   -0.26113E-03 60696   0.238E-01    0.846E-02
DAV:  17    -0.303681591233E+03    0.40315E-05   -0.79461E-04 49644   0.138E-01
   2 F= -.30368159E+03 E0= -.30367268E+03  d E =-.428466E+00
 trial-energy change:   -0.428466  1 .order   -0.413197   -0.936579    0.110185
 step:   0.9024(harm=  0.8947)  dis= 0.05160  next Energy=  -303.686952 (dE=-0.434E+00)
 bond charge predicted
       N       E                     dE             d eps       ncg     rms          rms(c)
DAV:   1    -0.303695665093E+03   -0.14070E-01   -0.11453E+00 52224   0.451E+00    0.105E+00
DAV:   2    -0.303705256691E+03   -0.95916E-02   -0.22914E-01 74532   0.229E+00    0.104E+00
DAV:   3    -0.303697954753E+03    0.73019E-02   -0.18250E-01 73800   0.181E+00    0.890E-01
DAV:   4    -0.303694381885E+03    0.35729E-02   -0.10670E-01 71736   0.137E+00    0.736E-01
DAV:   5    -0.303689881913E+03    0.45000E-02   -0.59491E-02 70668   0.100E+00    0.424E-01
DAV:   6    -0.303688494790E+03    0.13871E-02   -0.24122E-02 72216   0.672E-01    0.302E-01
DAV:   7    -0.303687881935E+03    0.61286E-03   -0.11556E-02 74280   0.466E-01    0.231E-01
DAV:   8    -0.303687731950E+03    0.14998E-03   -0.57079E-03 62868   0.333E-01    0.177E-01
DAV:   9    -0.303687552948E+03    0.17900E-03   -0.21146E-03 61764   0.208E-01    0.113E-01
DAV:  10    -0.303687472951E+03    0.79997E-04   -0.64598E-04 45168   0.127E-01
   3 F= -.30368747E+03 E0= -.30367846E+03  d E =-.434348E+00
 curvature:  -0.44 expect dE=-0.356E+00 dE for cont linesearch -0.217E-04
 trial: gam= 0.86224 g(F)=  0.249E+00 g(S)=  0.552E+00 ort =-0.676E-02 (trialstep = 0.618E+00)
 search vector abs. value=  0.149E+01
 bond charge predicted
       N       E                     dE             d eps       ncg     rms          rms(c)
DAV:   1    -0.303747535601E+03   -0.59983E-01   -0.66245E+01 41280   0.294E+01    0.427E+00
DAV:   2    -0.304481072901E+03   -0.73354E+00   -0.87452E+00 70116   0.138E+01    0.606E+00
DAV:   3    -0.304167890811E+03    0.31318E+00   -0.48218E+00 73788   0.951E+00    0.368E+00
DAV:   4    -0.304065158911E+03    0.10273E+00   -0.11323E+00 69504   0.505E+00    0.203E+00
DAV:   5    -0.304038138735E+03    0.27020E-01   -0.59632E-01 70572   0.337E+00    0.187E+00
DAV:   6    -0.304021273136E+03    0.16866E-01   -0.40879E-01 71844   0.296E+00    0.139E+00
DAV:   7    -0.304009806452E+03    0.11467E-01   -0.17130E-01 75324   0.184E+00    0.948E-01
DAV:   8    -0.304005151389E+03    0.46551E-02   -0.11409E-01 72696   0.162E+00    0.740E-01
DAV:   9    -0.304000664816E+03    0.44866E-02   -0.43138E-02 70992   0.926E-01    0.372E-01
DAV:  10    -0.304000435236E+03    0.22958E-03   -0.11287E-02 67284   0.410E-01    0.295E-01
DAV:  11    -0.304000720604E+03   -0.28537E-03   -0.62032E-03 63360   0.353E-01    0.280E-01
DAV:  12    -0.304001101379E+03   -0.38077E-03   -0.65576E-03 62580   0.380E-01    0.239E-01
DAV:  13    -0.304001007967E+03    0.93412E-04   -0.60921E-03 66420   0.353E-01    0.171E-01
DAV:  14    -0.304001000401E+03    0.75662E-05   -0.48481E-03 58956   0.325E-01    0.157E-01
DAV:  15    -0.304000799112E+03    0.20129E-03   -0.23785E-03 64764   0.231E-01    0.711E-02
DAV:  16    -0.304000731275E+03    0.67837E-04   -0.47014E-04 41412   0.108E-01
   4 F= -.30400073E+03 E0= -.30399281E+03  d E =-.313258E+00
 trial-energy change:   -0.313258  1 .order   -0.317144   -0.491450   -0.142837
 step:   0.8988(harm=  0.8715)  dis= 0.06496  next Energy=  -304.032781 (dE=-0.345E+00)
 bond charge predicted
       N       E                     dE             d eps       ncg     rms          rms(c)
DAV:   1    -0.303982566225E+03    0.18233E-01   -0.13535E+01 41280   0.132E+01    0.190E+00
DAV:   2    -0.304126674498E+03   -0.14411E+00   -0.17463E+00 69924   0.622E+00    0.269E+00
DAV:   3    -0.304069537386E+03    0.57137E-01   -0.97783E-01 72516   0.442E+00    0.176E+00
DAV:   4    -0.304047867286E+03    0.21670E-01   -0.25601E-01 68076   0.246E+00    0.109E+00
DAV:   5    -0.304040842253E+03    0.70250E-02   -0.14272E-01 70404   0.173E+00    0.883E-01
DAV:   6    -0.304035222906E+03    0.56193E-02   -0.72254E-02 72852   0.119E+00    0.516E-01
DAV:   7    -0.304034000379E+03    0.12225E-02   -0.34304E-02 75204   0.827E-01    0.455E-01
DAV:   8    -0.304032668873E+03    0.13315E-02   -0.24294E-02 71016   0.731E-01    0.307E-01
DAV:   9    -0.304031927402E+03    0.74147E-03   -0.83261E-03 60024   0.396E-01    0.170E-01
DAV:  10    -0.304031863354E+03    0.64048E-04   -0.26397E-03 62196   0.199E-01    0.134E-01
DAV:  11    -0.304031909575E+03   -0.46221E-04   -0.12963E-03 54792   0.165E-01    0.116E-01
DAV:  12    -0.304031990830E+03   -0.81255E-04   -0.14574E-03 56316   0.186E-01    0.108E-01
DAV:  13    -0.304031925234E+03    0.65596E-04   -0.10870E-03 53988   0.153E-01    0.584E-02
DAV:  14    -0.304031919005E+03    0.62297E-05   -0.58539E-04 43488   0.129E-01
   5 F= -.30403192E+03 E0= -.30402463E+03  d E =-.344446E+00
 curvature:  -0.80 expect dE=-0.830E-01 dE for cont linesearch -0.607E-05
 trial: gam= 0.06082 g(F)=  0.101E+00 g(S)=  0.240E-02 ort =-0.335E-02 (trialstep = 0.674E+00)
 search vector abs. value=  0.108E+00
 bond charge predicted
       N       E                     dE             d eps       ncg     rms          rms(c)
DAV:   1    -0.304057792684E+03   -0.25867E-01   -0.56597E+00 41280   0.812E+00    0.932E-01
DAV:   2    -0.304109643377E+03   -0.51851E-01   -0.58654E-01 69396   0.387E+00    0.150E+00
DAV:   3    -0.304099046085E+03    0.10597E-01   -0.27131E-01 67260   0.248E+00    0.999E-01
DAV:   4    -0.304092144599E+03    0.69015E-02   -0.71756E-02 70524   0.120E+00    0.564E-01
DAV:   5    -0.304090228379E+03    0.19162E-02   -0.37212E-02 73200   0.887E-01    0.480E-01
DAV:   6    -0.304088798611E+03    0.14298E-02   -0.22166E-02 70284   0.680E-01    0.300E-01
DAV:   7    -0.304088485879E+03    0.31273E-03   -0.12372E-02 72072   0.462E-01    0.260E-01
DAV:   8    -0.304088033393E+03    0.45249E-03   -0.92032E-03 63684   0.410E-01    0.199E-01
DAV:   9    -0.304087684076E+03    0.34932E-03   -0.29021E-03 58872   0.257E-01    0.101E-01
DAV:  10    -0.304087614776E+03    0.69300E-04   -0.71631E-04 47760   0.117E-01
   6 F= -.30408761E+03 E0= -.30408115E+03  d E =-.556958E-01
 trial-energy change:   -0.055696  1 .order   -0.055830   -0.069435   -0.042226
 step:   1.7208(harm=  1.7208)  dis= 0.03938  next Energy=  -304.120514 (dE=-0.886E-01)
 bond charge predicted
       N       E                     dE             d eps       ncg     rms          rms(c)
DAV:   1    -0.304048911021E+03    0.38773E-01   -0.13657E+01 41280   0.126E+01    0.143E+00
DAV:   2    -0.304169950227E+03   -0.12104E+00   -0.13884E+00 69324   0.591E+00    0.225E+00
DAV:   3    -0.304148964642E+03    0.20986E-01   -0.63444E-01 67380   0.381E+00    0.156E+00
DAV:   4    -0.304131231856E+03    0.17733E-01   -0.17016E-01 71352   0.185E+00    0.859E-01
DAV:   5    -0.304126814009E+03    0.44178E-02   -0.87866E-02 71220   0.138E+00    0.741E-01
DAV:   6    -0.304123556732E+03    0.32573E-02   -0.52796E-02 71988   0.105E+00    0.465E-01
DAV:   7    -0.304122512575E+03    0.10442E-02   -0.28770E-02 74700   0.691E-01    0.378E-01
DAV:   8    -0.304121668060E+03    0.84451E-03   -0.20675E-02 73032   0.609E-01    0.308E-01
DAV:   9    -0.304120814756E+03    0.85330E-03   -0.69124E-03 58716   0.384E-01    0.152E-01
DAV:  10    -0.304120697392E+03    0.11736E-03   -0.17622E-03 62484   0.166E-01    0.979E-02
DAV:  11    -0.304120733230E+03   -0.35837E-04   -0.64996E-04 45564   0.121E-01
   7 F= -.30412073E+03 E0= -.30411570E+03  d E =-.888142E-01
 curvature:  -0.90 expect dE=-0.686E-01 dE for cont linesearch -0.211E-04
 trial: gam= 0.71701 g(F)=  0.248E-01 g(S)=  0.511E-01 ort = 0.159E-02 (trialstep = 0.715E+00)
 search vector abs. value=  0.134E+00
 bond charge predicted
       N       E                     dE             d eps       ncg     rms          rms(c)
DAV:   1    -0.304191874503E+03   -0.71177E-01   -0.81565E+00 51660   0.121E+01    0.272E+00
DAV:   2    -0.304238604612E+03   -0.46730E-01   -0.15760E+00 73608   0.572E+00    0.223E+00
DAV:   3    -0.304208571420E+03    0.30033E-01   -0.11477E+00 71736   0.412E+00    0.223E+00
DAV:   4    -0.304199824549E+03    0.87469E-02   -0.68151E-01 68028   0.386E+00    0.213E+00
DAV:   5    -0.304155370759E+03    0.44454E-01   -0.31010E-01 72804   0.251E+00    0.845E-01
DAV:   6    -0.304153865484E+03    0.15053E-02   -0.14644E-01 69480   0.178E+00    0.930E-01
DAV:   7    -0.304146748545E+03    0.71169E-02   -0.85891E-02 71916   0.131E+00    0.434E-01
DAV:   8    -0.304146292621E+03    0.45592E-03   -0.27668E-02 72564   0.674E-01    0.352E-01
DAV:   9    -0.304145558229E+03    0.73439E-03   -0.96685E-03 64164   0.436E-01    0.258E-01
DAV:  10    -0.304145354256E+03    0.20397E-03   -0.30931E-03 58944   0.264E-01    0.186E-01
DAV:  11    -0.304145499925E+03   -0.14567E-03   -0.11788E-03 55980   0.145E-01    0.148E-01
DAV:  12    -0.304145912989E+03   -0.41306E-03   -0.24892E-03 66528   0.209E-01    0.140E-01
DAV:  13    -0.304145909885E+03    0.31045E-05   -0.25758E-03 61896   0.232E-01    0.103E-01
DAV:  14    -0.304145809278E+03    0.10061E-03   -0.12743E-03 57060   0.164E-01    0.468E-02
DAV:  15    -0.304145781221E+03    0.28057E-04   -0.17926E-04 27240   0.977E-02
   8 F= -.30414578E+03 E0= -.30414170E+03  d E =-.250480E-01
 trial-energy change:   -0.025048  1 .order   -0.025065   -0.055041    0.004911
 step:   0.6566(harm=  0.6566)  dis= 0.01239  next Energy=  -304.145999 (dE=-0.253E-01)
 bond charge predicted
       N       E                     dE             d eps       ncg     rms          rms(c)
DAV:   1    -0.304146484754E+03   -0.67548E-03   -0.56540E-02 55440   0.102E+00    0.224E-01
DAV:   2    -0.304146836037E+03   -0.35128E-03   -0.11333E-02 74568   0.467E-01    0.194E-01
DAV:   3    -0.304146601487E+03    0.23455E-03   -0.83507E-03 70104   0.342E-01    0.187E-01
DAV:   4    -0.304146517963E+03    0.83524E-04   -0.46165E-03 59988   0.308E-01    0.177E-01
DAV:   5    -0.304146211063E+03    0.30690E-03   -0.23561E-03 58212   0.216E-01    0.799E-02
DAV:   6    -0.304146204234E+03    0.68285E-05   -0.12371E-03 55296   0.176E-01    0.893E-02
DAV:   7    -0.304146134787E+03    0.69447E-04   -0.67433E-04 45360   0.140E-01
   9 F= -.30414613E+03 E0= -.30414197E+03  d E =-.254016E-01
 curvature:  -0.57 expect dE=-0.214E-01 dE for cont linesearch -0.466E-04
 trial: gam= 0.54336 g(F)=  0.239E-01 g(S)=  0.136E-01 ort =-0.331E-02 (trialstep = 0.703E+00)
 search vector abs. value=  0.734E-01
 bond charge predicted
       N       E                     dE             d eps       ncg     rms          rms(c)
DAV:   1    -0.304143878441E+03    0.23258E-02   -0.39160E+00 41580   0.675E+00    0.602E-01
DAV:   2    -0.304178666722E+03   -0.34788E-01   -0.36454E-01 68232   0.308E+00    0.103E+00
DAV:   3    -0.304170917185E+03    0.77495E-02   -0.12468E-01 69168   0.174E+00    0.599E-01
DAV:   4    -0.304168833785E+03    0.20834E-02   -0.29885E-02 67440   0.856E-01    0.384E-01
DAV:   5    -0.304167490240E+03    0.13435E-02   -0.11165E-02 66744   0.458E-01    0.249E-01
DAV:   6    -0.304167538125E+03   -0.47884E-04   -0.64575E-03 62448   0.372E-01    0.258E-01
DAV:   7    -0.304167138604E+03    0.39952E-03   -0.56193E-03 69300   0.341E-01    0.169E-01
DAV:   8    -0.304167031351E+03    0.10725E-03   -0.43868E-03 66312   0.298E-01    0.163E-01
DAV:   9    -0.304166758162E+03    0.27319E-03   -0.19461E-03 56280   0.215E-01    0.568E-02
DAV:  10    -0.304166741286E+03    0.16876E-04   -0.41278E-04 38808   0.110E-01
  10 F= -.30416674E+03 E0= -.30416324E+03  d E =-.206065E-01
 trial-energy change:   -0.020606  1 .order   -0.020467   -0.025133   -0.015802
 step:   1.8948(harm=  1.8948)  dis= 0.02835  next Energy=  -304.179983 (dE=-0.338E-01)
 bond charge predicted
       N       E                     dE             d eps       ncg     rms          rms(c)
DAV:   1    -0.304118913661E+03    0.47845E-01   -0.11279E+01 42168   0.115E+01    0.982E-01
DAV:   2    -0.304214167201E+03   -0.95254E-01   -0.99899E-01 68148   0.494E+00    0.173E+00
DAV:   3    -0.304191651993E+03    0.22515E-01   -0.34106E-01 69864   0.285E+00    0.976E-01
DAV:   4    -0.304185946485E+03    0.57055E-02   -0.78172E-02 67176   0.138E+00    0.616E-01
DAV:   5    -0.304182586102E+03    0.33604E-02   -0.28902E-02 70368   0.719E-01    0.406E-01
DAV:   6    -0.304183144942E+03   -0.55884E-03   -0.18685E-02 68376   0.637E-01    0.469E-01
DAV:   7    -0.304181738595E+03    0.14063E-02   -0.17285E-02 69024   0.608E-01    0.289E-01
DAV:   8    -0.304181388127E+03    0.35047E-03   -0.12467E-02 70656   0.502E-01    0.275E-01
DAV:   9    -0.304180609629E+03    0.77850E-03   -0.57724E-03 62736   0.364E-01    0.100E-01
DAV:  10    -0.304180597512E+03    0.12117E-04   -0.16605E-03 59964   0.181E-01    0.872E-02
DAV:  11    -0.304180548203E+03    0.49309E-04   -0.80316E-04 48252   0.138E-01
  11 F= -.30418055E+03 E0= -.30417823E+03  d E =-.344134E-01
 curvature:  -1.95 expect dE=-0.349E-01 dE for cont linesearch -0.271E-05
 trial: gam= 0.27965 g(F)=  0.151E-01 g(S)=  0.286E-02 ort =-0.320E-03 (trialstep = 0.942E+00)
 search vector abs. value=  0.235E-01
 bond charge predicted
       N       E                     dE             d eps       ncg     rms          rms(c)
DAV:   1    -0.304186741436E+03   -0.61439E-02   -0.21510E+00 41316   0.568E+00    0.108E+00
DAV:   2    -0.304197607741E+03   -0.10866E-01   -0.25894E-01 67068   0.231E+00    0.646E-01
DAV:   3    -0.304200248386E+03   -0.26406E-02   -0.11560E-01 71280   0.136E+00    0.748E-01
DAV:   4    -0.304196933034E+03    0.33154E-02   -0.74828E-02 69756   0.129E+00    0.698E-01
DAV:   5    -0.304192453722E+03    0.44793E-02   -0.40837E-02 71604   0.962E-01    0.329E-01
DAV:   6    -0.304192417651E+03    0.36072E-04   -0.16900E-02 70980   0.585E-01    0.327E-01
DAV:   7    -0.304191612789E+03    0.80486E-03   -0.81500E-03 65136   0.444E-01    0.167E-01
DAV:   8    -0.304191430782E+03    0.18201E-03   -0.24737E-03 62928   0.216E-01    0.117E-01
DAV:   9    -0.304191413862E+03    0.16920E-04   -0.13343E-03 55884   0.153E-01    0.101E-01
DAV:  10    -0.304191413836E+03    0.26386E-07   -0.65964E-04 45048   0.134E-01
  12 F= -.30419141E+03 E0= -.30418913E+03  d E =-.108656E-01
 trial-energy change:   -0.010866  1 .order   -0.011205   -0.016789   -0.005620
 step:   1.4156(harm=  1.4156)  dis= 0.01131  next Energy=  -304.193167 (dE=-0.126E-01)
 bond charge predicted
       N       E                     dE             d eps       ncg     rms          rms(c)
DAV:   1    -0.304191369933E+03    0.43929E-04   -0.54308E-01 41316   0.284E+00    0.540E-01
DAV:   2    -0.304193941795E+03   -0.25719E-02   -0.65403E-02 67404   0.118E+00    0.345E-01
DAV:   3    -0.304195154894E+03   -0.12131E-02   -0.35075E-02 70860   0.777E-01    0.472E-01
DAV:   4    -0.304193781747E+03    0.13731E-02   -0.25380E-02 63096   0.743E-01    0.369E-01
DAV:   5    -0.304192487061E+03    0.12947E-02   -0.11654E-02 69024   0.487E-01    0.163E-01
DAV:   6    -0.304192505670E+03   -0.18609E-04   -0.41343E-03 65664   0.279E-01    0.170E-01
DAV:   7    -0.304192259535E+03    0.24614E-03   -0.19629E-03 59700   0.221E-01    0.845E-02
DAV:   8    -0.304192236262E+03    0.23273E-04   -0.62743E-04 46716   0.119E-01
  13 F= -.30419224E+03 E0= -.30418998E+03  d E =-.116881E-01
 curvature:  -0.93 expect dE=-0.291E-01 dE for cont linesearch -0.319E-04
 trial: gam= 1.79968 g(F)=  0.562E-02 g(S)=  0.256E-01 ort =-0.897E-03 (trialstep = 0.234E+00)
 search vector abs. value=  0.104E+00
 bond charge predicted
       N       E                     dE             d eps       ncg     rms          rms(c)
DAV:   1    -0.304196489403E+03   -0.42299E-02   -0.52173E-01 42312   0.248E+00    0.323E-01
DAV:   2    -0.304200331295E+03   -0.38419E-02   -0.54214E-02 69372   0.104E+00    0.361E-01
DAV:   3    -0.304199649072E+03    0.68222E-03   -0.22650E-02 70824   0.704E-01    0.326E-01
DAV:   4    -0.304198936481E+03    0.71259E-03   -0.10008E-02 60048   0.479E-01    0.206E-01
DAV:   5    -0.304198615491E+03    0.32099E-03   -0.40745E-03 68604   0.286E-01    0.145E-01
DAV:   6    -0.304198644134E+03   -0.28643E-04   -0.37396E-03 63816   0.278E-01    0.167E-01
DAV:   7    -0.304198394611E+03    0.24952E-03   -0.22142E-03 59136   0.216E-01    0.657E-02
DAV:   8    -0.304198381582E+03    0.13029E-04   -0.78777E-04 48792   0.123E-01
  14 F= -.30419838E+03 E0= -.30419609E+03  d E =-.614532E-02
 ZBRENT: can't locate minimum, use default step
 trial-energy change:   -0.006145  1 .order   -0.006078   -0.006918   -0.005237
 step:   0.9361(harm=  0.9633)  dis= 0.01596  next Energy=  -304.206475 (dE=-0.142E-01)
 bond charge predicted
       N       E                     dE             d eps       ncg     rms          rms(c)
DAV:   1    -0.304190502254E+03    0.78924E-02   -0.47085E+00 43224   0.741E+00    0.914E-01
DAV:   2    -0.304221220518E+03   -0.30718E-01   -0.44557E-01 68184   0.292E+00    0.972E-01
DAV:   3    -0.304216307934E+03    0.49126E-02   -0.17261E-01 70632   0.194E+00    0.890E-01
DAV:   4    -0.304211116772E+03    0.51912E-02   -0.79462E-02 68532   0.137E+00    0.574E-01
DAV:   5    -0.304208376038E+03    0.27407E-02   -0.32140E-02 72156   0.809E-01    0.382E-01
DAV:   6    -0.304208676732E+03   -0.30069E-03   -0.27758E-02 71280   0.764E-01    0.447E-01
DAV:   7    -0.304206874064E+03    0.18027E-02   -0.15101E-02 66588   0.556E-01    0.171E-01
DAV:   8    -0.304206836962E+03    0.37101E-04   -0.49362E-03 69060   0.282E-01    0.162E-01
DAV:   9    -0.304206650801E+03    0.18616E-03   -0.22128E-03 60456   0.231E-01    0.115E-01
DAV:  10    -0.304206570607E+03    0.80194E-04   -0.74455E-04 48432   0.131E-01
  15 F= -.30420657E+03 E0= -.30420416E+03  d E =-.143343E-01
 curvature:  -1.69 expect dE=-0.197E-01 dE for cont linesearch -0.641E-04
 trial: gam= 0.15629 g(F)=  0.110E-01 g(S)=  0.586E-03 ort = 0.198E-02 (trialstep = 0.374E+00)
 search vector abs. value=  0.148E-01
 bond charge predicted
       N       E                     dE             d eps       ncg     rms          rms(c)
DAV:   1    -0.304210170124E+03   -0.35193E-02   -0.19047E-01 41304   0.152E+00    0.253E-01
DAV:   2    -0.304211298916E+03   -0.11288E-02   -0.20766E-02 70524   0.690E-01    0.261E-01
DAV:   3    -0.304211358001E+03   -0.59085E-04   -0.13383E-02 69216   0.556E-01    0.285E-01
DAV:   4    -0.304210691944E+03    0.66606E-03   -0.60600E-03 59304   0.384E-01    0.128E-01
DAV:   5    -0.304210539367E+03    0.15258E-03   -0.22171E-03 62160   0.199E-01    0.921E-02
DAV:   6    -0.304210534761E+03    0.46061E-05   -0.13443E-03 54636   0.188E-01    0.970E-02
DAV:   7    -0.304210451831E+03    0.82930E-04   -0.58131E-04 44028   0.136E-01
  16 F= -.30421045E+03 E0= -.30420803E+03  d E =-.388122E-02
 ZBRENT: can't locate minimum, use default step
 trial-energy change:   -0.003881  1 .order   -0.003988   -0.004473   -0.003504
 step:   1.4977(harm=  1.7286)  dis= 0.00723  next Energy=  -304.216894 (dE=-0.103E-01)
 bond charge predicted
       N       E                     dE             d eps       ncg     rms          rms(c)
DAV:   1    -0.304212814692E+03   -0.22799E-02   -0.16975E+00 41280   0.453E+00    0.769E-01
DAV:   2    -0.304222800430E+03   -0.99857E-02   -0.18571E-01 71448   0.206E+00    0.765E-01
DAV:   3    -0.304224513260E+03   -0.17128E-02   -0.11929E-01 69180   0.165E+00    0.909E-01
DAV:   4    -0.304217676610E+03    0.68367E-02   -0.58033E-02 65796   0.117E+00    0.372E-01
DAV:   5    -0.304215972532E+03    0.17041E-02   -0.19453E-02 74148   0.565E-01    0.248E-01
DAV:   6    -0.304215992320E+03   -0.19788E-04   -0.11948E-02 70260   0.480E-01    0.253E-01
DAV:   7    -0.304215359599E+03    0.63272E-03   -0.55647E-03 61656   0.346E-01    0.110E-01
DAV:   8    -0.304215448199E+03   -0.88600E-04   -0.19139E-03 61860   0.202E-01    0.129E-01
DAV:   9    -0.304215319422E+03    0.12878E-03   -0.10070E-03 50424   0.154E-01    0.723E-02
DAV:  10    -0.304215302896E+03    0.16525E-04   -0.23690E-04 31860   0.971E-02
  17 F= -.30421530E+03 E0= -.30421283E+03  d E =-.873229E-02
 curvature:  -1.04 expect dE=-0.147E-01 dE for cont linesearch -0.524E-05
 trial: gam= 1.21799 g(F)=  0.375E-02 g(S)=  0.104E-01 ort = 0.273E-03 (trialstep = 0.241E+00)
 search vector abs. value=  0.367E-01
 bond charge predicted
       N       E                     dE             d eps       ncg     rms          rms(c)
DAV:   1    -0.304218282363E+03   -0.29629E-02   -0.18699E-01 41280   0.163E+00    0.331E-01
DAV:   2    -0.304219786826E+03   -0.15045E-02   -0.25915E-02 72384   0.805E-01    0.315E-01
DAV:   3    -0.304219540374E+03    0.24645E-03   -0.16638E-02 71148   0.624E-01    0.292E-01
DAV:   4    -0.304219116762E+03    0.42361E-03   -0.87482E-03 62712   0.448E-01    0.218E-01
DAV:   5    -0.304218624548E+03    0.49221E-03   -0.46173E-03 62568   0.324E-01    0.136E-01
DAV:   6    -0.304218510536E+03    0.11401E-03   -0.22399E-03 62028   0.225E-01    0.904E-02
DAV:   7    -0.304218465765E+03    0.44771E-04   -0.10522E-03 51540   0.159E-01    0.768E-02
DAV:   8    -0.304218440191E+03    0.25574E-04   -0.72467E-04 46800   0.143E-01
  18 F= -.30421844E+03 E0= -.30421597E+03  d E =-.313729E-02
 ZBRENT: can't locate minimum, use default step
 trial-energy change:   -0.003137  1 .order   -0.003098   -0.003486   -0.002709
 step:   0.9654(harm=  1.0832)  dis= 0.00711  next Energy=  -304.223126 (dE=-0.782E-02)
 bond charge predicted
       N       E                     dE             d eps       ncg     rms          rms(c)
DAV:   1    -0.304219723677E+03   -0.12579E-02   -0.16798E+00 41280   0.489E+00    0.935E-01
DAV:   2    -0.304231446520E+03   -0.11723E-01   -0.20981E-01 70896   0.224E+00    0.872E-01
DAV:   3    -0.304231845114E+03   -0.39859E-03   -0.14082E-01 71112   0.182E+00    0.934E-01
DAV:   4    -0.304226176688E+03    0.56684E-02   -0.76009E-02 69732   0.136E+00    0.554E-01
DAV:   5    -0.304222236701E+03    0.39400E-02   -0.32025E-02 71076   0.772E-01    0.312E-01
DAV:   6    -0.304222116566E+03    0.12013E-03   -0.15478E-02 71532   0.573E-01    0.299E-01
DAV:   7    -0.304221539599E+03    0.57697E-03   -0.85508E-03 61764   0.416E-01    0.185E-01
DAV:   8    -0.304221374550E+03    0.16505E-03   -0.38424E-03 61188   0.280E-01    0.146E-01
DAV:   9    -0.304221253176E+03    0.12137E-03   -0.14123E-03 54756   0.183E-01    0.910E-02
DAV:  10    -0.304221216484E+03    0.36692E-04   -0.31227E-04 34656   0.103E-01
  19 F= -.30422122E+03 E0= -.30421879E+03  d E =-.591359E-02
 curvature:  -1.35 expect dE=-0.151E-01 dE for cont linesearch -0.146E-03
 trial: gam= 0.92048 g(F)=  0.831E-02 g(S)=  0.291E-02 ort =-0.199E-02 (trialstep = 0.367E+00)
 search vector abs. value=  0.387E-01
 bond charge predicted
       N       E                     dE             d eps       ncg     rms          rms(c)
DAV:   1    -0.304222881236E+03   -0.16281E-02   -0.34912E-01 41280   0.187E+00    0.180E-01
DAV:   2    -0.304225557188E+03   -0.26760E-02   -0.27766E-02 68688   0.880E-01    0.344E-01
DAV:   3    -0.304224721287E+03    0.83590E-03   -0.10167E-02 67812   0.537E-01    0.161E-01
DAV:   4    -0.304224564565E+03    0.15672E-03   -0.18380E-03 58752   0.212E-01    0.109E-01
DAV:   5    -0.304224466128E+03    0.98437E-04   -0.11896E-03 55008   0.151E-01    0.802E-02
DAV:   6    -0.304224460253E+03    0.58747E-05   -0.74662E-04 47376   0.137E-01
  20 F= -.30422446E+03 E0= -.30422206E+03  d E =-.324377E-02
 ZBRENT: can't locate minimum, use default step
 trial-energy change:   -0.003244  1 .order   -0.003307   -0.003443   -0.003170
 step:   1.4670(harm=  4.6376)  dis= 0.01064  next Energy=  -304.242983 (dE=-0.218E-01)
 bond charge predicted
       N       E                     dE             d eps       ncg     rms          rms(c)
DAV:   1    -0.304217485058E+03    0.69811E-02   -0.31346E+00 41340   0.561E+00    0.514E-01
DAV:   2    -0.304241945408E+03   -0.24460E-01   -0.25263E-01 68196   0.273E+00    0.103E+00
DAV:   3    -0.304233468061E+03    0.84773E-02   -0.89925E-02 67488   0.163E+00    0.427E-01
DAV:   4    -0.304232797680E+03    0.67038E-03   -0.17505E-02 68844   0.643E-01    0.352E-01
DAV:   5    -0.304231631211E+03    0.11665E-02   -0.10954E-02 69636   0.454E-01    0.231E-01
DAV:   6    -0.304231531418E+03    0.99793E-04   -0.62408E-03 61392   0.351E-01    0.221E-01
DAV:   7    -0.304231325691E+03    0.20573E-03   -0.56914E-03 67176   0.317E-01    0.188E-01
DAV:   8    -0.304231146292E+03    0.17940E-03   -0.41241E-03 61140   0.303E-01    0.153E-01
DAV:   9    -0.304230883326E+03    0.26297E-03   -0.16946E-03 55908   0.207E-01    0.518E-02
DAV:  10    -0.304230847765E+03    0.35561E-04   -0.30536E-04 35856   0.886E-02
  21 F= -.30423085E+03 E0= -.30422852E+03  d E =-.963128E-02
 curvature:  -4.29 expect dE=-0.510E-01 dE for cont linesearch -0.157E-02
 ZBRENT: increasing intervall
 opt :   3.6675  next Energy=  -304.228407 (dE=-0.719E-02)
 bond charge predicted
       N       E                     dE             d eps       ncg     rms          rms(c)
DAV:   1    -0.304173668090E+03    0.57215E-01   -0.12534E+01 41280   0.112E+01    0.108E+00
DAV:   2    -0.304275089187E+03   -0.10142E+00   -0.10476E+00 68340   0.557E+00    0.208E+00
DAV:   3    -0.304241610117E+03    0.33479E-01   -0.38859E-01 67464   0.338E+00    0.928E-01
DAV:   4    -0.304237152893E+03    0.44572E-02   -0.75981E-02 72060   0.135E+00    0.678E-01
DAV:   5    -0.304232724484E+03    0.44284E-02   -0.41815E-02 75840   0.855E-01    0.459E-01
DAV:   6    -0.304232326178E+03    0.39831E-03   -0.22556E-02 66564   0.679E-01    0.448E-01
DAV:   7    -0.304231592384E+03    0.73379E-03   -0.21123E-02 69648   0.617E-01    0.372E-01
DAV:   8    -0.304231189855E+03    0.40253E-03   -0.17113E-02 71928   0.610E-01    0.344E-01
DAV:   9    -0.304229870432E+03    0.13194E-02   -0.82410E-03 60384   0.436E-01    0.108E-01
DAV:  10    -0.304229776162E+03    0.94270E-04   -0.19738E-03 63732   0.171E-01    0.706E-02
DAV:  11    -0.304229750522E+03    0.25640E-04   -0.72737E-04 48996   0.121E-01
  22 F= -.30422975E+03 E0= -.30422776E+03  d E =-.853404E-02
 curvature:   6.65 expect dE= 0.179E+00 dE for cont linesearch  0.391E-02
 ZBRENT: bracketing found
 ZBRENT: interpolating
 opt :   2.4384  next Energy=  -304.232678 (dE=-0.115E-01)
 bond charge predicted
       N       E                     dE             d eps       ncg     rms          rms(c)
DAV:   1    -0.304215654694E+03    0.14121E-01   -0.39047E+00 41280   0.626E+00    0.581E-01
DAV:   2    -0.304247947312E+03   -0.32293E-01   -0.32459E-01 67944   0.316E+00    0.122E+00
DAV:   3    -0.304235646911E+03    0.12300E-01   -0.11472E-01 67476   0.187E+00    0.439E-01
DAV:   4    -0.304234766100E+03    0.88081E-03   -0.19406E-02 68508   0.676E-01    0.375E-01
DAV:   5    -0.304233657693E+03    0.11084E-02   -0.14210E-02 66288   0.545E-01    0.268E-01
DAV:   6    -0.304233267782E+03    0.38991E-03   -0.70256E-03 61140   0.373E-01    0.210E-01
DAV:   7    -0.304233294644E+03   -0.26862E-04   -0.65706E-03 67596   0.351E-01    0.230E-01
DAV:   8    -0.304232971213E+03    0.32343E-03   -0.50703E-03 61512   0.345E-01    0.157E-01
DAV:   9    -0.304232661848E+03    0.30936E-03   -0.18965E-03 59028   0.203E-01    0.511E-02
DAV:  10    -0.304232641948E+03    0.19900E-04   -0.39341E-04 40128   0.975E-02
  23 F= -.30423264E+03 E0= -.30423045E+03  d E =-.114255E-01
 curvature:  -3.11 expect dE=-0.492E-01 dE for cont linesearch -0.107E-05
 trial: gam= 0.71814 g(F)=  0.824E-02 g(S)=  0.756E-02 ort =-0.115E-03 (trialstep = 0.781E+00)
 search vector abs. value=  0.356E-01
 bond charge predicted
       N       E                     dE             d eps       ncg     rms          rms(c)
DAV:   1    -0.304247776229E+03   -0.15114E-01   -0.18400E+00 41724   0.569E+00    0.137E+00
DAV:   2    -0.304256115340E+03   -0.83391E-02   -0.29495E-01 72792   0.274E+00    0.105E+00
DAV:   3    -0.304258469843E+03   -0.23545E-02   -0.26975E-01 72336   0.229E+00    0.128E+00
DAV:   4    -0.304248224601E+03    0.10245E-01   -0.19284E-01 68136   0.200E+00    0.895E-01
DAV:   5    -0.304239582926E+03    0.86417E-02   -0.70390E-02 69732   0.112E+00    0.385E-01
DAV:   6    -0.304239794252E+03   -0.21133E-03   -0.31209E-02 72792   0.757E-01    0.447E-01
DAV:   7    -0.304238352618E+03    0.14416E-02   -0.18159E-02 64152   0.585E-01    0.249E-01
DAV:   8    -0.304238134473E+03    0.21815E-03   -0.63122E-03 65820   0.334E-01    0.186E-01
DAV:   9    -0.304237951224E+03    0.18325E-03   -0.22760E-03 61584   0.228E-01    0.128E-01
DAV:  10    -0.304237915341E+03    0.35882E-04   -0.89317E-04 50148   0.145E-01
  24 F= -.30423792E+03 E0= -.30423561E+03  d E =-.527339E-02
 trial-energy change:   -0.005273  1 .order   -0.005890   -0.012277    0.000496
 step:   0.7393(harm=  0.7507)  dis= 0.00494  next Energy=  -304.237929 (dE=-0.529E-02)
 bond charge predicted
       N       E                     dE             d eps       ncg     rms          rms(c)
DAV:   1    -0.304238114576E+03   -0.16335E-03   -0.58513E-03 52968   0.328E-01    0.119E-01
DAV:   2    -0.304239247462E+03   -0.11329E-02   -0.80739E-03 70788   0.468E-01    0.310E-01
DAV:   3    -0.304238158650E+03    0.10888E-02   -0.58509E-03 61596   0.378E-01    0.872E-02
DAV:   4    -0.304238153361E+03    0.52893E-05   -0.96320E-04 52248   0.134E-01
  25 F= -.30423815E+03 E0= -.30423585E+03  d E =-.551141E-02
 curvature:  -0.73 expect dE=-0.708E-02 dE for cont linesearch -0.936E-06
 trial: gam= 0.62444 g(F)=  0.467E-02 g(S)=  0.505E-02 ort =-0.214E-03 (trialstep = 0.773E+00)
 search vector abs. value=  0.233E-01
 bond charge predicted
       N       E                     dE             d eps       ncg     rms          rms(c)
DAV:   1    -0.304238333260E+03   -0.17461E-03   -0.11934E+00 42168   0.369E+00    0.366E-01
DAV:   2    -0.304248112179E+03   -0.97789E-02   -0.10996E-01 69816   0.152E+00    0.615E-01
DAV:   3    -0.304245146036E+03    0.29661E-02   -0.42358E-02 70536   0.954E-01    0.347E-01
DAV:   4    -0.304244400632E+03    0.74540E-03   -0.10253E-02 63756   0.463E-01    0.225E-01
DAV:   5    -0.304244075968E+03    0.32466E-03   -0.52659E-03 64512   0.328E-01    0.180E-01
DAV:   6    -0.304243964586E+03    0.11138E-03   -0.36374E-03 60060   0.308E-01    0.161E-01
DAV:   7    -0.304243909408E+03    0.55178E-04   -0.31029E-03 66432   0.259E-01    0.139E-01
DAV:   8    -0.304243748423E+03    0.16098E-03   -0.16608E-03 56976   0.206E-01    0.739E-02
DAV:   9    -0.304243669237E+03    0.79186E-04   -0.37082E-04 36480   0.115E-01
  26 F= -.30424367E+03 E0= -.30424130E+03  d E =-.551588E-02
 trial-energy change:   -0.005516  1 .order   -0.005481   -0.007412   -0.003550
 step:   1.4832(harm=  1.4832)  dis= 0.01118  next Energy=  -304.245267 (dE=-0.711E-02)
 bond charge predicted
       N       E                     dE             d eps       ncg     rms          rms(c)
DAV:   1    -0.304240449938E+03    0.32985E-02   -0.10079E+00 42132   0.338E+00    0.320E-01
DAV:   2    -0.304248739961E+03   -0.82900E-02   -0.89402E-02 69588   0.142E+00    0.566E-01
DAV:   3    -0.304246240446E+03    0.24995E-02   -0.32555E-02 69780   0.872E-01    0.296E-01
DAV:   4    -0.304245762839E+03    0.47761E-03   -0.77143E-03 64248   0.406E-01    0.204E-01
DAV:   5    -0.304245469712E+03    0.29313E-03   -0.39749E-03 60696   0.293E-01    0.154E-01
DAV:   6    -0.304245411941E+03    0.57771E-04   -0.25483E-03 61164   0.257E-01    0.139E-01
DAV:   7    -0.304245383362E+03    0.28579E-04   -0.25366E-03 64032   0.227E-01    0.130E-01
DAV:   8    -0.304245234941E+03    0.14842E-03   -0.13426E-03 54552   0.189E-01    0.678E-02
DAV:   9    -0.304245172623E+03    0.62318E-04   -0.28442E-04 33168   0.110E-01
  27 F= -.30424517E+03 E0= -.30424273E+03  d E =-.701926E-02
 curvature:  -1.80 expect dE=-0.673E-02 dE for cont linesearch -0.102E-05
 trial: gam= 0.34217 g(F)=  0.346E-02 g(S)=  0.273E-03 ort =-0.115E-03 (trialstep = 0.915E+00)
 search vector abs. value=  0.638E-02
 bond charge predicted
       N       E                     dE             d eps       ncg     rms          rms(c)
DAV:   1    -0.304244555284E+03    0.67966E-03   -0.53988E-01 41280   0.273E+00    0.354E-01
DAV:   2    -0.304251473389E+03   -0.69181E-02   -0.79411E-02 70464   0.136E+00    0.538E-01
DAV:   3    -0.304249119281E+03    0.23541E-02   -0.37722E-02 71472   0.894E-01    0.347E-01
DAV:   4    -0.304248590598E+03    0.52868E-03   -0.12792E-02 60828   0.530E-01    0.254E-01
DAV:   5    -0.304247977221E+03    0.61338E-03   -0.62870E-03 64380   0.342E-01    0.161E-01
DAV:   6    -0.304247863526E+03    0.11369E-03   -0.33704E-03 59724   0.274E-01    0.128E-01
DAV:   7    -0.304247765000E+03    0.98526E-04   -0.14950E-03 57876   0.185E-01    0.785E-02
DAV:   8    -0.304247712767E+03    0.52233E-04   -0.68248E-04 44052   0.149E-01
  28 F= -.30424771E+03 E0= -.30424548E+03  d E =-.254014E-02
 trial-energy change:   -0.002540  1 .order   -0.002631   -0.003378   -0.001883
 step:   2.0679(harm=  2.0679)  dis= 0.00897  next Energy=  -304.248990 (dE=-0.382E-02)
 bond charge predicted
       N       E                     dE             d eps       ncg     rms          rms(c)
DAV:   1    -0.304243783911E+03    0.39811E-02   -0.85680E-01 41280   0.344E+00    0.449E-01
DAV:   2    -0.304255361721E+03   -0.11578E-01   -0.12939E-01 70644   0.177E+00    0.726E-01
DAV:   3    -0.304250961837E+03    0.43999E-02   -0.63265E-02 70812   0.117E+00    0.441E-01
DAV:   4    -0.304250144930E+03    0.81691E-03   -0.20723E-02 65160   0.656E-01    0.320E-01
DAV:   5    -0.304249222234E+03    0.92270E-03   -0.10370E-02 65424   0.431E-01    0.221E-01
DAV:   6    -0.304248935688E+03    0.28655E-03   -0.55627E-03 60852   0.351E-01    0.152E-01
DAV:   7    -0.304248830030E+03    0.10566E-03   -0.24382E-03 63840   0.228E-01    0.107E-01
DAV:   8    -0.304248756541E+03    0.73489E-04   -0.14414E-03 61860   0.187E-01    0.777E-02
DAV:   9    -0.304248681231E+03    0.75310E-04   -0.30765E-04 34104   0.117E-01
  29 F= -.30424868E+03 E0= -.30424668E+03  d E =-.350861E-02
 curvature:  -1.79 expect dE=-0.147E-01 dE for cont linesearch -0.863E-05
 trial: gam= 2.18020 g(F)=  0.163E-02 g(S)=  0.661E-02 ort =-0.176E-03 (trialstep = 0.193E+00)
 search vector abs. value=  0.378E-01
 bond charge predicted
       N       E                     dE             d eps       ncg     rms          rms(c)
DAV:   1    -0.304249250801E+03   -0.49426E-03   -0.14346E-01 41316   0.141E+00    0.209E-01
DAV:   2    -0.304251078231E+03   -0.18274E-02   -0.22858E-02 70728   0.759E-01    0.308E-01
DAV:   3    -0.304250496068E+03    0.58216E-03   -0.11301E-02 69456   0.507E-01    0.205E-01
DAV:   4    -0.304250241001E+03    0.25507E-03   -0.39410E-03 61548   0.292E-01    0.137E-01
DAV:   5    -0.304250101473E+03    0.13953E-03   -0.21581E-03 60084   0.208E-01    0.105E-01
DAV:   6    -0.304250033742E+03    0.67731E-04   -0.11700E-03 54312   0.157E-01    0.687E-02
DAV:   7    -0.304249993640E+03    0.40102E-04   -0.41617E-04 37812   0.125E-01
  30 F= -.30424999E+03 E0= -.30424808E+03  d E =-.131241E-02
 ZBRENT: can't locate minimum, use default step
 trial-energy change:   -0.001312  1 .order   -0.001352   -0.001520   -0.001185
 step:   0.7733(harm=  0.8761)  dis= 0.00798  next Energy=  -304.252125 (dE=-0.344E-02)
 bond charge predicted
       N       E                     dE             d eps       ncg     rms          rms(c)
DAV:   1    -0.304243978206E+03    0.60555E-02   -0.12832E+00 41280   0.422E+00    0.586E-01
DAV:   2    -0.304259596250E+03   -0.15618E-01   -0.19288E-01 69996   0.219E+00    0.835E-01
DAV:   3    -0.304255620097E+03    0.39762E-02   -0.90531E-02 69744   0.143E+00    0.591E-01
DAV:   4    -0.304253366739E+03    0.22534E-02   -0.32629E-02 68040   0.860E-01    0.361E-01
DAV:   5    -0.304252136405E+03    0.12303E-02   -0.14710E-02 67584   0.517E-01    0.250E-01
DAV:   6    -0.304251900452E+03    0.23595E-03   -0.82730E-03 70212   0.394E-01    0.197E-01
DAV:   7    -0.304251664955E+03    0.23550E-03   -0.40141E-03 65256   0.299E-01    0.137E-01
DAV:   8    -0.304251550358E+03    0.11460E-03   -0.22696E-03 63528   0.212E-01    0.100E-01
DAV:   9    -0.304251471458E+03    0.78900E-04   -0.84285E-04 49692   0.151E-01
  31 F= -.30425147E+03 E0= -.30424986E+03  d E =-.279023E-02
 curvature:  -2.06 expect dE=-0.855E-02 dE for cont linesearch -0.202E-04
 trial: gam= 0.52700 g(F)=  0.344E-02 g(S)=  0.706E-03 ort =-0.609E-03 (trialstep = 0.309E+00)
 search vector abs. value=  0.140E-01
 bond charge predicted
       N       E                     dE             d eps       ncg     rms          rms(c)
DAV:   1    -0.304251650603E+03   -0.10024E-03   -0.13161E-01 42024   0.127E+00    0.108E-01
DAV:   2    -0.304252854784E+03   -0.12042E-02   -0.13173E-02 68004   0.567E-01    0.163E-01
DAV:   3    -0.304252687626E+03    0.16716E-03   -0.31708E-03 70692   0.282E-01    0.965E-02
DAV:   4    -0.304252620149E+03    0.67477E-04   -0.65644E-04 45552   0.141E-01
  32 F= -.30425262E+03 E0= -.30425110E+03  d E =-.114869E-02
 ZBRENT: can't locate minimum, use default step
 trial-energy change:   -0.001149  1 .order   -0.001178   -0.001184   -0.001173
 step:   1.2373(harm= 31.9457)  dis= 0.00967  next Energy=  -304.312610 (dE=-0.611E-01)
 bond charge predicted
       N       E                     dE             d eps       ncg     rms          rms(c)
DAV:   1    -0.304247283945E+03    0.54037E-02   -0.11810E+00 42168   0.380E+00    0.307E-01
DAV:   2    -0.304257164836E+03   -0.98809E-02   -0.11164E-01 68076   0.158E+00    0.419E-01
DAV:   3    -0.304256284227E+03    0.88061E-03   -0.26420E-02 71496   0.789E-01    0.321E-01
DAV:   4    -0.304255697855E+03    0.58637E-03   -0.88761E-03 65112   0.469E-01    0.229E-01
DAV:   5    -0.304255244478E+03    0.45338E-03   -0.42645E-03 64440   0.295E-01    0.146E-01
DAV:   6    -0.304255238465E+03    0.60123E-05   -0.24073E-03 61332   0.234E-01    0.142E-01
DAV:   7    -0.304255070586E+03    0.16788E-03   -0.21236E-03 65076   0.214E-01    0.860E-02
DAV:   8    -0.304255034046E+03    0.36541E-04   -0.92562E-04 50088   0.152E-01
  33 F= -.30425503E+03 E0= -.30425378E+03  d E =-.356259E-02
 curvature:  -3.38 expect dE=-0.640E-02 dE for cont linesearch -0.853E-03
 trial: gam=-0.05623 g(F)=  0.168E-02 g(S)=  0.215E-03 ort = 0.188E-02 (trialstep = 0.495E+00)
 search vector abs. value=  0.173E-02
 bond charge predicted
       N       E                     dE             d eps       ncg     rms          rms(c)
DAV:   1    -0.304255719069E+03   -0.64848E-03   -0.49832E-02 43752   0.828E-01    0.147E-01
DAV:   2    -0.304256114573E+03   -0.39550E-03   -0.64213E-03 70536   0.397E-01    0.168E-01
DAV:   3    -0.304256069148E+03    0.45425E-04   -0.47964E-03 61884   0.331E-01    0.160E-01
DAV:   4    -0.304255870360E+03    0.19879E-03   -0.20620E-03 56568   0.225E-01    0.788E-02
DAV:   5    -0.304255812759E+03    0.57602E-04   -0.87887E-04 50592   0.136E-01
  34 F= -.30425581E+03 E0= -.30425449E+03  d E =-.778713E-03
 ZBRENT: can't locate minimum, use default step
 trial-energy change:   -0.000779  1 .order   -0.000818   -0.000885   -0.000752
 step:   1.9797(harm=  3.2976)  dis= 0.00396  next Energy=  -304.257981 (dE=-0.295E-02)
 bond charge predicted
       N       E                     dE             d eps       ncg     rms          rms(c)
DAV:   1    -0.304255928194E+03   -0.57834E-04   -0.43950E-01 41292   0.240E+00    0.424E-01
DAV:   2    -0.304258719057E+03   -0.27909E-02   -0.51416E-02 69444   0.112E+00    0.444E-01
DAV:   3    -0.304258786650E+03   -0.67593E-04   -0.37377E-02 66816   0.930E-01    0.452E-01
DAV:   4    -0.304257057640E+03    0.17290E-02   -0.17041E-02 59700   0.603E-01    0.209E-01
DAV:   5    -0.304256713345E+03    0.34430E-03   -0.64903E-03 67968   0.356E-01    0.179E-01
DAV:   6    -0.304256533197E+03    0.18015E-03   -0.37126E-03 59364   0.306E-01    0.127E-01
DAV:   7    -0.304256397379E+03    0.13582E-03   -0.17351E-03 60024   0.192E-01    0.704E-02
DAV:   8    -0.304256423492E+03   -0.26114E-04   -0.79202E-04 47832   0.143E-01
  35 F= -.30425642E+03 E0= -.30425496E+03  d E =-.138945E-02
 curvature:  -1.24 expect dE=-0.356E-02 dE for cont linesearch -0.638E-04
 trial: gam= 1.61922 g(F)=  0.905E-03 g(S)=  0.196E-02 ort =-0.298E-03 (trialstep = 0.213E+00)
 search vector abs. value=  0.643E-02
 bond charge predicted
       N       E                     dE             d eps       ncg     rms          rms(c)
DAV:   1    -0.304256751906E+03   -0.35453E-03   -0.31554E-02 41976   0.658E-01    0.123E-01
DAV:   2    -0.304257137455E+03   -0.38555E-03   -0.50409E-03 73032   0.365E-01    0.155E-01
DAV:   3    -0.304256974324E+03    0.16313E-03   -0.31766E-03 61968   0.274E-01    0.108E-01
DAV:   4    -0.304256920308E+03    0.54016E-04   -0.13595E-03 55620   0.173E-01    0.858E-02
DAV:   5    -0.304256872569E+03    0.47739E-04   -0.75856E-04 47544   0.135E-01
  36 F= -.30425687E+03 E0= -.30425536E+03  d E =-.449077E-03
 ZBRENT: can't locate minimum, use default step
 trial-energy change:   -0.000449  1 .order   -0.000481   -0.000507   -0.000454
 step:   0.8502(harm=  2.0283)  dis= 0.00327  next Energy=  -304.258845 (dE=-0.242E-02)
 bond charge predicted
       N       E                     dE             d eps       ncg     rms          rms(c)
DAV:   1    -0.304256632213E+03    0.28809E-03   -0.27923E-01 41280   0.192E+00    0.310E-01
DAV:   2    -0.304259350878E+03   -0.27187E-02   -0.36464E-02 69960   0.991E-01    0.398E-01
DAV:   3    -0.304258428063E+03    0.92282E-03   -0.22282E-02 67860   0.715E-01    0.287E-01
DAV:   4    -0.304257826896E+03    0.60117E-03   -0.80056E-03 60144   0.409E-01    0.169E-01
DAV:   5    -0.304257562653E+03    0.26424E-03   -0.35190E-03 63540   0.259E-01    0.120E-01
DAV:   6    -0.304257488468E+03    0.74185E-04   -0.19190E-03 59676   0.210E-01    0.933E-02
DAV:   7    -0.304257426645E+03    0.61824E-04   -0.10624E-03 52032   0.165E-01    0.639E-02
DAV:   8    -0.304257417129E+03    0.95156E-05   -0.47561E-04 39468   0.124E-01
  37 F= -.30425742E+03 E0= -.30425576E+03  d E =-.993637E-03
 curvature:  -1.58 expect dE=-0.262E-02 dE for cont linesearch -0.273E-04
 trial: gam= 0.12897 g(F)=  0.153E-02 g(S)=  0.120E-03 ort = 0.333E-03 (trialstep = 0.340E+00)
 search vector abs. value=  0.185E-02
 reached required accuracy - stopping structural energy minimisation
 writing wavefunctions
VASP is done!
