<?xml version="1.0" encoding="ISO-8859-1"?>
<modeling>
 <generator>
  <i name="program" type="string">vasp </i>
  <i name="version" type="string">5.4.4.18Apr17-6-g9f103f2a35  </i>
  <i name="subversion" type="string">(build Aug 09 2018 16:20:53) complex            parallel </i>
  <i name="platform" type="string">LinuxIFC </i>
  <i name="date" type="string">2020 04 29 </i>
  <i name="time" type="string">19:28:25 </i>
 </generator>
 <incar>
  <i type="string" name="SYSTEM"> Nb - Mo - Ta - Ti - V SQS</i>
  <i type="string" name="PREC">normal</i>
  <i type="int" name="ICHARG">     0</i>
  <i type="int" name="IBRION">     2</i>
  <i type="int" name="NSW">    50</i>
  <i type="int" name="ISIF">     3</i>
  <i name="ENCUT">    600.00000000</i>
  <i type="string" name="LREAL"> Auto</i>
  <i type="int" name="ISMEAR">     1</i>
  <i name="SIGMA">      0.20000000</i>
  <v type="int" name="KPOINT_BSE">    -1     0     0     0</v>
  <i type="string" name="GGA"> PS</i>
 </incar>
 <structure name="primitive_cell" >
  <crystal>
   <varray name="basis" >
    <v>      -3.16000000      -3.16000000      -3.16000000 </v>
    <v>       1.58000000       1.58000000      -7.90000000 </v>
    <v>       7.90000000      -7.90000000      -1.58000000 </v>
   </varray>
   <i name="volume">    473.31744000 </i>
   <varray name="rec_basis" >
    <v>      -0.13713080      -0.12658228      -0.05274262 </v>
    <v>       0.04219409       0.06329114      -0.10548523 </v>
    <v>       0.06329114      -0.06329114       0.00000000 </v>
   </varray>
  </crystal>
  <varray name="positions" >
   <v>      -0.03333333      -0.06666667       0.40000000 </v>
   <v>       0.30000000      -0.40000000       0.40000000 </v>
   <v>      -0.10000000      -0.20000000       0.20000000 </v>
   <v>       0.06666667       0.13333333       0.20000000 </v>
   <v>       0.46666667      -0.06666667       0.40000000 </v>
   <v>      -0.13333333      -0.26666667      -0.40000000 </v>
   <v>       0.03333333       0.06666667      -0.40000000 </v>
   <v>      -0.36666667       0.26666667       0.40000000 </v>
   <v>       0.40000000      -0.20000000       0.20000000 </v>
   <v>      -0.20000000      -0.40000000       0.40000000 </v>
   <v>       0.36666667      -0.26666667      -0.40000000 </v>
   <v>       0.13333333       0.26666667       0.40000000 </v>
   <v>      -0.46666667       0.06666667      -0.40000000 </v>
   <v>       0.23333333       0.46666667       0.20000000 </v>
   <v>       0.20000000       0.40000000      -0.40000000 </v>
   <v>       0.00000000       0.00000000       0.00000000 </v>
   <v>      -0.06666667      -0.13333333      -0.20000000 </v>
   <v>      -0.30000000       0.40000000      -0.40000000 </v>
   <v>      -0.26666667       0.46666667       0.20000000 </v>
   <v>       0.33333333      -0.33333333       0.00000000 </v>
   <v>       0.43333333      -0.13333333      -0.20000000 </v>
   <v>      -0.50000000       0.00000000       0.00000000 </v>
   <v>       0.26666667      -0.46666667      -0.20000000 </v>
   <v>      -0.33333333       0.33333333       0.00000000 </v>
   <v>      -0.40000000       0.20000000      -0.20000000 </v>
   <v>      -0.16666667      -0.33333333       0.00000000 </v>
   <v>      -0.23333333      -0.46666667      -0.20000000 </v>
   <v>       0.16666667       0.33333333       0.00000000 </v>
   <v>       0.10000000       0.20000000      -0.20000000 </v>
  </varray>
 </structure>
 <varray name="primitive_index" >
  <v type="int" >        1 </v>
  <v type="int" >       17 </v>
  <v type="int" >        7 </v>
  <v type="int" >       23 </v>
  <v type="int" >       19 </v>
  <v type="int" >       18 </v>
  <v type="int" >        6 </v>
  <v type="int" >        2 </v>
  <v type="int" >       15 </v>
  <v type="int" >        8 </v>
  <v type="int" >       11 </v>
  <v type="int" >       12 </v>
  <v type="int" >       27 </v>
  <v type="int" >       29 </v>
  <v type="int" >       22 </v>
  <v type="int" >        4 </v>
  <v type="int" >       14 </v>
  <v type="int" >       25 </v>
  <v type="int" >        9 </v>
  <v type="int" >       28 </v>
  <v type="int" >       16 </v>
  <v type="int" >        3 </v>
  <v type="int" >       21 </v>
  <v type="int" >       10 </v>
  <v type="int" >       26 </v>
  <v type="int" >       13 </v>
  <v type="int" >       24 </v>
  <v type="int" >       20 </v>
  <v type="int" >        5 </v>
 </varray>
 <kpoints>
  <generation param="Gamma">
   <v type="int" name="divisions">       7        7        7 </v>
   <v name="usershift">      0.00000000       0.00000000       0.00000000 </v>
   <v name="genvec1">      0.14285714       0.00000000       0.00000000 </v>
   <v name="genvec2">     -0.00000000       0.14285714       0.00000000 </v>
   <v name="genvec3">      0.00000000       0.00000000       0.14285714 </v>
   <v name="shift">      0.00000000       0.00000000       0.00000000 </v>
  </generation>
  <varray name="kpointlist" >
   <v>       0.00000000       0.00000000       0.00000000 </v>
   <v>       0.14285714       0.00000000      -0.00000000 </v>
   <v>       0.28571429       0.00000000       0.00000000 </v>
   <v>       0.42857143       0.00000000      -0.00000000 </v>
   <v>      -0.00000000       0.14285714       0.00000000 </v>
   <v>       0.14285714       0.14285714      -0.00000000 </v>
   <v>       0.28571429       0.14285714       0.00000000 </v>
   <v>       0.42857143       0.14285714      -0.00000000 </v>
   <v>      -0.42857143       0.14285714       0.00000000 </v>
   <v>      -0.28571429       0.14285714       0.00000000 </v>
   <v>      -0.14285714       0.14285714       0.00000000 </v>
   <v>       0.00000000       0.28571429      -0.00000000 </v>
   <v>       0.14285714       0.28571429      -0.00000000 </v>
   <v>       0.28571429       0.28571429      -0.00000000 </v>
   <v>       0.42857143       0.28571429      -0.00000000 </v>
   <v>      -0.42857143       0.28571429      -0.00000000 </v>
   <v>      -0.28571429       0.28571429      -0.00000000 </v>
   <v>      -0.14285714       0.28571429      -0.00000000 </v>
   <v>      -0.00000000       0.42857143      -0.00000000 </v>
   <v>       0.14285714       0.42857143       0.00000000 </v>
   <v>       0.28571429       0.42857143       0.00000000 </v>
   <v>       0.42857143       0.42857143      -0.00000000 </v>
   <v>      -0.42857143       0.42857143       0.00000000 </v>
   <v>      -0.28571429       0.42857143      -0.00000000 </v>
   <v>      -0.14285714       0.42857143      -0.00000000 </v>
   <v>       0.00000000       0.00000000       0.14285714 </v>
   <v>       0.14285714       0.00000000       0.14285714 </v>
   <v>       0.28571429       0.00000000       0.14285714 </v>
   <v>       0.42857143       0.00000000       0.14285714 </v>
   <v>      -0.42857143       0.00000000       0.14285714 </v>
   <v>      -0.28571429       0.00000000       0.14285714 </v>
   <v>      -0.14285714      -0.00000000       0.14285714 </v>
   <v>      -0.00000000       0.14285714       0.14285714 </v>
   <v>       0.14285714       0.14285714       0.14285714 </v>
   <v>       0.28571429       0.14285714       0.14285714 </v>
   <v>       0.42857143       0.14285714       0.14285714 </v>
   <v>      -0.42857143       0.14285714       0.14285714 </v>
   <v>      -0.28571429       0.14285714       0.14285714 </v>
   <v>      -0.14285714       0.14285714       0.14285714 </v>
   <v>      -0.00000000       0.28571429       0.14285714 </v>
   <v>       0.14285714       0.28571429       0.14285714 </v>
   <v>       0.28571429       0.28571429       0.14285714 </v>
   <v>       0.42857143       0.28571429       0.14285714 </v>
   <v>      -0.42857143       0.28571429       0.14285714 </v>
   <v>      -0.28571429       0.28571429       0.14285714 </v>
   <v>      -0.14285714       0.28571429       0.14285714 </v>
   <v>       0.00000000       0.42857143       0.14285714 </v>
   <v>       0.14285714       0.42857143       0.14285714 </v>
   <v>       0.28571429       0.42857143       0.14285714 </v>
   <v>       0.42857143       0.42857143       0.14285714 </v>
   <v>      -0.42857143       0.42857143       0.14285714 </v>
   <v>      -0.28571429       0.42857143       0.14285714 </v>
   <v>      -0.14285714       0.42857143       0.14285714 </v>
   <v>       0.00000000      -0.42857143       0.14285714 </v>
   <v>       0.14285714      -0.42857143       0.14285714 </v>
   <v>       0.28571429      -0.42857143       0.14285714 </v>
   <v>       0.42857143      -0.42857143       0.14285714 </v>
   <v>      -0.42857143      -0.42857143       0.14285714 </v>
   <v>      -0.28571429      -0.42857143       0.14285714 </v>
   <v>      -0.14285714      -0.42857143       0.14285714 </v>
   <v>       0.00000000      -0.28571429       0.14285714 </v>
   <v>       0.14285714      -0.28571429       0.14285714 </v>
   <v>       0.28571429      -0.28571429       0.14285714 </v>
   <v>       0.42857143      -0.28571429       0.14285714 </v>
   <v>      -0.42857143      -0.28571429       0.14285714 </v>
   <v>      -0.28571429      -0.28571429       0.14285714 </v>
   <v>      -0.14285714      -0.28571429       0.14285714 </v>
   <v>       0.00000000      -0.14285714       0.14285714 </v>
   <v>       0.14285714      -0.14285714       0.14285714 </v>
   <v>       0.28571429      -0.14285714       0.14285714 </v>
   <v>       0.42857143      -0.14285714       0.14285714 </v>
   <v>      -0.42857143      -0.14285714       0.14285714 </v>
   <v>      -0.28571429      -0.14285714       0.14285714 </v>
   <v>      -0.14285714      -0.14285714       0.14285714 </v>
   <v>       0.00000000       0.00000000       0.28571429 </v>
   <v>       0.14285714       0.00000000       0.28571429 </v>
   <v>       0.28571429       0.00000000       0.28571429 </v>
   <v>       0.42857143       0.00000000       0.28571429 </v>
   <v>      -0.42857143      -0.00000000       0.28571429 </v>
   <v>      -0.28571429      -0.00000000       0.28571429 </v>
   <v>      -0.14285714      -0.00000000       0.28571429 </v>
   <v>      -0.00000000       0.14285714       0.28571429 </v>
   <v>       0.14285714       0.14285714       0.28571429 </v>
   <v>       0.28571429       0.14285714       0.28571429 </v>
   <v>       0.42857143       0.14285714       0.28571429 </v>
   <v>      -0.42857143       0.14285714       0.28571429 </v>
   <v>      -0.28571429       0.14285714       0.28571429 </v>
   <v>      -0.14285714       0.14285714       0.28571429 </v>
   <v>      -0.00000000       0.28571429       0.28571429 </v>
   <v>       0.14285714       0.28571429       0.28571429 </v>
   <v>       0.28571429       0.28571429       0.28571429 </v>
   <v>       0.42857143       0.28571429       0.28571429 </v>
   <v>      -0.42857143       0.28571429       0.28571429 </v>
   <v>      -0.28571429       0.28571429       0.28571429 </v>
   <v>      -0.14285714       0.28571429       0.28571429 </v>
   <v>       0.00000000       0.42857143       0.28571429 </v>
   <v>       0.14285714       0.42857143       0.28571429 </v>
   <v>       0.28571429       0.42857143       0.28571429 </v>
   <v>       0.42857143       0.42857143       0.28571429 </v>
   <v>      -0.42857143       0.42857143       0.28571429 </v>
   <v>      -0.28571429       0.42857143       0.28571429 </v>
   <v>      -0.14285714       0.42857143       0.28571429 </v>
   <v>      -0.00000000      -0.42857143       0.28571429 </v>
   <v>       0.14285714      -0.42857143       0.28571429 </v>
   <v>       0.28571429      -0.42857143       0.28571429 </v>
   <v>       0.42857143      -0.42857143       0.28571429 </v>
   <v>      -0.42857143      -0.42857143       0.28571429 </v>
   <v>      -0.28571429      -0.42857143       0.28571429 </v>
   <v>      -0.14285714      -0.42857143       0.28571429 </v>
   <v>       0.00000000      -0.28571429       0.28571429 </v>
   <v>       0.14285714      -0.28571429       0.28571429 </v>
   <v>       0.28571429      -0.28571429       0.28571429 </v>
   <v>       0.42857143      -0.28571429       0.28571429 </v>
   <v>      -0.42857143      -0.28571429       0.28571429 </v>
   <v>      -0.28571429      -0.28571429       0.28571429 </v>
   <v>      -0.14285714      -0.28571429       0.28571429 </v>
   <v>       0.00000000      -0.14285714       0.28571429 </v>
   <v>       0.14285714      -0.14285714       0.28571429 </v>
   <v>       0.28571429      -0.14285714       0.28571429 </v>
   <v>       0.42857143      -0.14285714       0.28571429 </v>
   <v>      -0.42857143      -0.14285714       0.28571429 </v>
   <v>      -0.28571429      -0.14285714       0.28571429 </v>
   <v>      -0.14285714      -0.14285714       0.28571429 </v>
   <v>       0.00000000       0.00000000       0.42857143 </v>
   <v>       0.14285714       0.00000000       0.42857143 </v>
   <v>       0.28571429       0.00000000       0.42857143 </v>
   <v>       0.42857143      -0.00000000       0.42857143 </v>
   <v>      -0.42857143      -0.00000000       0.42857143 </v>
   <v>      -0.28571429       0.00000000       0.42857143 </v>
   <v>      -0.14285714      -0.00000000       0.42857143 </v>
   <v>      -0.00000000       0.14285714       0.42857143 </v>
   <v>       0.14285714       0.14285714       0.42857143 </v>
   <v>       0.28571429       0.14285714       0.42857143 </v>
   <v>       0.42857143       0.14285714       0.42857143 </v>
   <v>      -0.42857143       0.14285714       0.42857143 </v>
   <v>      -0.28571429       0.14285714       0.42857143 </v>
   <v>      -0.14285714       0.14285714       0.42857143 </v>
   <v>       0.00000000       0.28571429       0.42857143 </v>
   <v>       0.14285714       0.28571429       0.42857143 </v>
   <v>       0.28571429       0.28571429       0.42857143 </v>
   <v>       0.42857143       0.28571429       0.42857143 </v>
   <v>      -0.42857143       0.28571429       0.42857143 </v>
   <v>      -0.28571429       0.28571429       0.42857143 </v>
   <v>      -0.14285714       0.28571429       0.42857143 </v>
   <v>       0.00000000       0.42857143       0.42857143 </v>
   <v>       0.14285714       0.42857143       0.42857143 </v>
   <v>       0.28571429       0.42857143       0.42857143 </v>
   <v>       0.42857143       0.42857143       0.42857143 </v>
   <v>      -0.42857143       0.42857143       0.42857143 </v>
   <v>      -0.28571429       0.42857143       0.42857143 </v>
   <v>      -0.14285714       0.42857143       0.42857143 </v>
   <v>       0.00000000      -0.42857143       0.42857143 </v>
   <v>       0.14285714      -0.42857143       0.42857143 </v>
   <v>       0.28571429      -0.42857143       0.42857143 </v>
   <v>       0.42857143      -0.42857143       0.42857143 </v>
   <v>      -0.42857143      -0.42857143       0.42857143 </v>
   <v>      -0.28571429      -0.42857143       0.42857143 </v>
   <v>      -0.14285714      -0.42857143       0.42857143 </v>
   <v>      -0.00000000      -0.28571429       0.42857143 </v>
   <v>       0.14285714      -0.28571429       0.42857143 </v>
   <v>       0.28571429      -0.28571429       0.42857143 </v>
   <v>       0.42857143      -0.28571429       0.42857143 </v>
   <v>      -0.42857143      -0.28571429       0.42857143 </v>
   <v>      -0.28571429      -0.28571429       0.42857143 </v>
   <v>      -0.14285714      -0.28571429       0.42857143 </v>
   <v>       0.00000000      -0.14285714       0.42857143 </v>
   <v>       0.14285714      -0.14285714       0.42857143 </v>
   <v>       0.28571429      -0.14285714       0.42857143 </v>
   <v>       0.42857143      -0.14285714       0.42857143 </v>
   <v>      -0.42857143      -0.14285714       0.42857143 </v>
   <v>      -0.28571429      -0.14285714       0.42857143 </v>
   <v>      -0.14285714      -0.14285714       0.42857143 </v>
  </varray>
  <varray name="weights" >
   <v>       0.00291545 </v>
   <v>       0.00583090 </v>
   <v>       0.00583090 </v>
   <v>       0.00583090 </v>
   <v>       0.00583090 </v>
   <v>       0.00583090 </v>
   <v>       0.00583090 </v>
   <v>       0.00583090 </v>
   <v>       0.00583090 </v>
   <v>       0.00583090 </v>
   <v>       0.00583090 </v>
   <v>       0.00583090 </v>
   <v>       0.00583090 </v>
   <v>       0.00583090 </v>
   <v>       0.00583090 </v>
   <v>       0.00583090 </v>
   <v>       0.00583090 </v>
   <v>       0.00583090 </v>
   <v>       0.00583090 </v>
   <v>       0.00583090 </v>
   <v>       0.00583090 </v>
   <v>       0.00583090 </v>
   <v>       0.00583090 </v>
   <v>       0.00583090 </v>
   <v>       0.00583090 </v>
   <v>       0.00583090 </v>
   <v>       0.00583090 </v>
   <v>       0.00583090 </v>
   <v>       0.00583090 </v>
   <v>       0.00583090 </v>
   <v>       0.00583090 </v>
   <v>       0.00583090 </v>
   <v>       0.00583090 </v>
   <v>       0.00583090 </v>
   <v>       0.00583090 </v>
   <v>       0.00583090 </v>
   <v>       0.00583090 </v>
   <v>       0.00583090 </v>
   <v>       0.00583090 </v>
   <v>       0.00583090 </v>
   <v>       0.00583090 </v>
   <v>       0.00583090 </v>
   <v>       0.00583090 </v>
   <v>       0.00583090 </v>
   <v>       0.00583090 </v>
   <v>       0.00583090 </v>
   <v>       0.00583090 </v>
   <v>       0.00583090 </v>
   <v>       0.00583090 </v>
   <v>       0.00583090 </v>
   <v>       0.00583090 </v>
   <v>       0.00583090 </v>
   <v>       0.00583090 </v>
   <v>       0.00583090 </v>
   <v>       0.00583090 </v>
   <v>       0.00583090 </v>
   <v>       0.00583090 </v>
   <v>       0.00583090 </v>
   <v>       0.00583090 </v>
   <v>       0.00583090 </v>
   <v>       0.00583090 </v>
   <v>       0.00583090 </v>
   <v>       0.00583090 </v>
   <v>       0.00583090 </v>
   <v>       0.00583090 </v>
   <v>       0.00583090 </v>
   <v>       0.00583090 </v>
   <v>       0.00583090 </v>
   <v>       0.00583090 </v>
   <v>       0.00583090 </v>
   <v>       0.00583090 </v>
   <v>       0.00583090 </v>
   <v>       0.00583090 </v>
   <v>       0.00583090 </v>
   <v>       0.00583090 </v>
   <v>       0.00583090 </v>
   <v>       0.00583090 </v>
   <v>       0.00583090 </v>
   <v>       0.00583090 </v>
   <v>       0.00583090 </v>
   <v>       0.00583090 </v>
   <v>       0.00583090 </v>
   <v>       0.00583090 </v>
   <v>       0.00583090 </v>
   <v>       0.00583090 </v>
   <v>       0.00583090 </v>
   <v>       0.00583090 </v>
   <v>       0.00583090 </v>
   <v>       0.00583090 </v>
   <v>       0.00583090 </v>
   <v>       0.00583090 </v>
   <v>       0.00583090 </v>
   <v>       0.00583090 </v>
   <v>       0.00583090 </v>
   <v>       0.00583090 </v>
   <v>       0.00583090 </v>
   <v>       0.00583090 </v>
   <v>       0.00583090 </v>
   <v>       0.00583090 </v>
   <v>       0.00583090 </v>
   <v>       0.00583090 </v>
   <v>       0.00583090 </v>
   <v>       0.00583090 </v>
   <v>       0.00583090 </v>
   <v>       0.00583090 </v>
   <v>       0.00583090 </v>
   <v>       0.00583090 </v>
   <v>       0.00583090 </v>
   <v>       0.00583090 </v>
   <v>       0.00583090 </v>
   <v>       0.00583090 </v>
   <v>       0.00583090 </v>
   <v>       0.00583090 </v>
   <v>       0.00583090 </v>
   <v>       0.00583090 </v>
   <v>       0.00583090 </v>
   <v>       0.00583090 </v>
   <v>       0.00583090 </v>
   <v>       0.00583090 </v>
   <v>       0.00583090 </v>
   <v>       0.00583090 </v>
   <v>       0.00583090 </v>
   <v>       0.00583090 </v>
   <v>       0.00583090 </v>
   <v>       0.00583090 </v>
   <v>       0.00583090 </v>
   <v>       0.00583090 </v>
   <v>       0.00583090 </v>
   <v>       0.00583090 </v>
   <v>       0.00583090 </v>
   <v>       0.00583090 </v>
   <v>       0.00583090 </v>
   <v>       0.00583090 </v>
   <v>       0.00583090 </v>
   <v>       0.00583090 </v>
   <v>       0.00583090 </v>
   <v>       0.00583090 </v>
   <v>       0.00583090 </v>
   <v>       0.00583090 </v>
   <v>       0.00583090 </v>
   <v>       0.00583090 </v>
   <v>       0.00583090 </v>
   <v>       0.00583090 </v>
   <v>       0.00583090 </v>
   <v>       0.00583090 </v>
   <v>       0.00583090 </v>
   <v>       0.00583090 </v>
   <v>       0.00583090 </v>
   <v>       0.00583090 </v>
   <v>       0.00583090 </v>
   <v>       0.00583090 </v>
   <v>       0.00583090 </v>
   <v>       0.00583090 </v>
   <v>       0.00583090 </v>
   <v>       0.00583090 </v>
   <v>       0.00583090 </v>
   <v>       0.00583090 </v>
   <v>       0.00583090 </v>
   <v>       0.00583090 </v>
   <v>       0.00583090 </v>
   <v>       0.00583090 </v>
   <v>       0.00583090 </v>
   <v>       0.00583090 </v>
   <v>       0.00583090 </v>
   <v>       0.00583090 </v>
   <v>       0.00583090 </v>
   <v>       0.00583090 </v>
   <v>       0.00583090 </v>
   <v>       0.00583090 </v>
   <v>       0.00583090 </v>
   <v>       0.00583090 </v>
   <v>       0.00583090 </v>
  </varray>
 </kpoints>
 <parameters>
  <separator name="general" >
   <i type="string" name="SYSTEM">Nb - Mo - Ta - Ti - V SQS</i>
   <i type="logical" name="LCOMPAT"> F  </i>
  </separator>
  <separator name="electronic" >
   <i type="string" name="PREC">normal</i>
   <i name="ENMAX">    600.00000000</i>
   <i name="ENAUG">    455.65900000</i>
   <i name="EDIFF">      0.00010000</i>
   <i type="int" name="IALGO">    38</i>
   <i type="int" name="IWAVPR">    11</i>
   <i type="int" name="NBANDS">   120</i>
   <i name="NELECT">    193.00000000</i>
   <i type="int" name="TURBO">     0</i>
   <i type="int" name="IRESTART">     0</i>
   <i type="int" name="NREBOOT">     0</i>
   <i type="int" name="NMIN">     0</i>
   <i name="EREF">      0.00000000</i>
   <separator name="electronic smearing" >
    <i type="int" name="ISMEAR">     1</i>
    <i name="SIGMA">      0.20000000</i>
    <i name="KSPACING">      0.50000000</i>
    <i type="logical" name="KGAMMA"> T  </i>
   </separator>
   <separator name="electronic projectors" >
    <i type="logical" name="LREAL"> T  </i>
    <v name="ROPT">     -0.00050000     -0.00050000     -0.00050000     -0.00050000     -0.00050000</v>
    <i type="int" name="LMAXPAW">  -100</i>
    <i type="int" name="LMAXMIX">     2</i>
    <i type="logical" name="NLSPLINE"> F  </i>
   </separator>
   <separator name="electronic startup" >
    <i type="int" name="ISTART">     0</i>
    <i type="int" name="ICHARG">     0</i>
    <i type="int" name="INIWAV">     1</i>
   </separator>
   <separator name="electronic spin" >
    <i type="int" name="ISPIN">     1</i>
    <i type="logical" name="LNONCOLLINEAR"> F  </i>
    <v name="MAGMOM">      1.00000000      1.00000000      1.00000000      1.00000000      1.00000000      1.00000000      1.00000000      1.00000000      1.00000000      1.00000000      1.00000000      1.00000000      1.00000000      1.00000000      1.00000000      1.00000000      1.00000000      1.00000000      1.00000000      1.00000000
      1.00000000      1.00000000      1.00000000      1.00000000      1.00000000      1.00000000      1.00000000      1.00000000      1.00000000</v>
    <i name="NUPDOWN">     -1.00000000</i>
    <i type="logical" name="LSORBIT"> F  </i>
    <v name="SAXIS">      0.00000000      0.00000000      1.00000000</v>
    <i type="logical" name="LSPIRAL"> F  </i>
    <v name="QSPIRAL">      0.00000000      0.00000000      0.00000000</v>
    <i type="logical" name="LZEROZ"> F  </i>
   </separator>
   <separator name="electronic exchange-correlation" >
    <i type="logical" name="LASPH"> F  </i>
    <i type="logical" name="LMETAGGA"> F  </i>
   </separator>
   <separator name="electronic convergence" >
    <i type="int" name="NELM">    60</i>
    <i type="int" name="NELMDL">    -5</i>
    <i type="int" name="NELMIN">     2</i>
    <i name="ENINI">    600.00000000</i>
    <separator name="electronic convergence detail" >
     <i type="logical" name="LDIAG"> T  </i>
     <i type="logical" name="LSUBROT"> F  </i>
     <i name="WEIMIN">      0.00100000</i>
     <i name="EBREAK">      0.00000021</i>
     <i name="DEPER">      0.30000000</i>
     <i type="int" name="NRMM">     4</i>
     <i name="TIME">      0.40000000</i>
    </separator>
   </separator>
   <separator name="electronic mixer" >
    <i name="AMIX">      0.40000000</i>
    <i name="BMIX">      1.00000000</i>
    <i name="AMIN">      0.10000000</i>
    <i name="AMIX_MAG">      1.60000000</i>
    <i name="BMIX_MAG">      1.00000000</i>
    <separator name="electronic mixer details" >
     <i type="int" name="IMIX">     4</i>
     <i type="logical" name="MIXFIRST"> F  </i>
     <i type="int" name="MAXMIX">   -45</i>
     <i name="WC">    100.00000000</i>
     <i type="int" name="INIMIX">     1</i>
     <i type="int" name="MIXPRE">     1</i>
     <i type="int" name="MREMOVE">     5</i>
    </separator>
   </separator>
   <separator name="electronic dipolcorrection" >
    <i type="logical" name="LDIPOL"> F  </i>
    <i type="logical" name="LMONO"> F  </i>
    <i type="int" name="IDIPOL">     0</i>
    <i name="EPSILON">      1.00000000</i>
    <v name="DIPOL">   -100.00000000   -100.00000000   -100.00000000</v>
    <i name="EFIELD">      0.00000000</i>
   </separator>
  </separator>
  <separator name="grids" >
   <i type="int" name="NGX">    36</i>
   <i type="int" name="NGY">    50</i>
   <i type="int" name="NGZ">    70</i>
   <i type="int" name="NGXF">    72</i>
   <i type="int" name="NGYF">   100</i>
   <i type="int" name="NGZF">   140</i>
   <i type="logical" name="ADDGRID"> F  </i>
  </separator>
  <separator name="ionic" >
   <i type="int" name="NSW">    50</i>
   <i type="int" name="IBRION">     2</i>
   <i type="int" name="MDALGO">     0</i>
   <i type="int" name="ISIF">     3</i>
   <i name="PSTRESS">      0.00000000</i>
   <i name="EDIFFG">      0.00100000</i>
   <i type="int" name="NFREE">     1</i>
   <i name="POTIM">      0.50000000</i>
   <i name="SMASS">     -3.00000000</i>
   <i name="SCALEE">      1.00000000</i>
  </separator>
  <separator name="ionic md" >
   <i name="TEBEG">      0.00010000</i>
   <i name="TEEND">      0.00010000</i>
   <i type="int" name="NBLOCK">     1</i>
   <i type="int" name="KBLOCK">    50</i>
   <i type="int" name="NPACO">   256</i>
   <i name="APACO">     16.00000000</i>
  </separator>
  <separator name="symmetry" >
   <i type="int" name="ISYM">     2</i>
   <i name="SYMPREC">      0.00001000</i>
  </separator>
  <separator name="dos" >
   <i type="int" name="LORBIT">     0</i>
   <v name="RWIGS">     -1.00000000     -1.00000000     -1.00000000     -1.00000000     -1.00000000</v>
   <i type="int" name="NEDOS">   301</i>
   <i name="EMIN">     10.00000000</i>
   <i name="EMAX">    -10.00000000</i>
   <i name="EFERMI">      0.00000000</i>
  </separator>
  <separator name="writing" >
   <i type="int" name="NWRITE">     2</i>
   <i type="logical" name="LWAVE"> T  </i>
   <i type="logical" name="LDOWNSAMPLE"> F  </i>
   <i type="logical" name="LCHARG"> T  </i>
   <i type="logical" name="LPARD"> F  </i>
   <i type="logical" name="LVTOT"> F  </i>
   <i type="logical" name="LVHAR"> F  </i>
   <i type="logical" name="LELF"> F  </i>
   <i type="logical" name="LOPTICS"> F  </i>
   <v name="STM">      0.00000000      0.00000000      0.00000000      0.00000000      0.00000000      0.00000000      0.00000000</v>
  </separator>
  <separator name="performance" >
   <i type="int" name="NPAR">    12</i>
   <i type="int" name="NSIM">     4</i>
   <i type="int" name="NBLK">    -1</i>
   <i type="logical" name="LPLANE"> T  </i>
   <i type="logical" name="LSCALAPACK"> T  </i>
   <i type="logical" name="LSCAAWARE"> F  </i>
   <i type="logical" name="LSCALU"> F  </i>
   <i type="logical" name="LASYNC"> F  </i>
   <i type="logical" name="LORBITALREAL"> F  </i>
  </separator>
  <separator name="miscellaneous" >
   <i type="int" name="IDIOT">     3</i>
   <i type="int" name="ISPECIAL">     0</i>
   <i type="logical" name="LMUSIC"> F  </i>
   <v name="POMASS">     92.91000000     95.94000000    180.94800000     47.88000000     50.94100000</v>
   <v name="DARWINR">      0.00000000      0.00000000      0.00000000      0.00000000      0.00000000</v>
   <v name="DARWINV">      1.00000000      1.00000000      1.00000000      1.00000000      1.00000000</v>
   <i type="logical" name="LCORR"> T  </i>
  </separator>
  <i type="logical" name="GGA_COMPAT"> T  </i>
  <i type="logical" name="LBERRY"> F  </i>
  <i type="int" name="ICORELEVEL">     0</i>
  <i type="logical" name="LDAU"> F  </i>
  <i type="int" name="I_CONSTRAINED_M">     0</i>
  <separator name="electronic exchange-correlation" >
   <i type="string" name="GGA">PS</i>
   <i type="int" name="VOSKOWN">     0</i>
   <i type="logical" name="LHFCALC"> F  </i>
   <i type="string" name="PRECFOCK"></i>
   <i type="logical" name="LSYMGRAD"> F  </i>
   <i type="logical" name="LHFONE"> F  </i>
   <i type="logical" name="LRHFCALC"> F  </i>
   <i type="logical" name="LTHOMAS"> F  </i>
   <i type="logical" name="LMODELHF"> F  </i>
   <i name="ENCUT4O">     -1.00000000</i>
   <i type="int" name="EXXOEP">     0</i>
   <i type="int" name="FOURORBIT">     0</i>
   <i name="AEXX">      0.00000000</i>
   <i name="HFALPHA">      0.00000000</i>
   <i name="MCALPHA">      0.00000000</i>
   <i name="ALDAX">      1.00000000</i>
   <i name="AGGAX">      1.00000000</i>
   <i name="ALDAC">      1.00000000</i>
   <i name="AGGAC">      1.00000000</i>
   <i type="int" name="NKREDX">     1</i>
   <i type="int" name="NKREDY">     1</i>
   <i type="int" name="NKREDZ">     1</i>
   <i type="logical" name="SHIFTRED"> F  </i>
   <i type="logical" name="ODDONLY"> F  </i>
   <i type="logical" name="EVENONLY"> F  </i>
   <i type="int" name="LMAXFOCK">     0</i>
   <i type="int" name="NMAXFOCKAE">     0</i>
   <i type="logical" name="LFOCKAEDFT"> F  </i>
   <i name="HFSCREEN">      0.00000000</i>
   <i name="HFSCREENC">      0.00000000</i>
   <i type="int" name="NBANDSGWLOW">     0</i>
  </separator>
  <separator name="vdW DFT" >
   <i type="logical" name="LUSE_VDW"> F  </i>
   <i name="Zab_VDW">     -0.84910000</i>
   <i name="PARAM1">      0.12340000</i>
   <i name="PARAM2">      1.00000000</i>
   <i name="PARAM3">      0.00000000</i>
  </separator>
  <separator name="model GW" >
   <i type="int" name="MODEL_GW">     0</i>
   <i name="MODEL_EPS0">      9.79277462</i>
   <i name="MODEL_ALPHA">      1.00000000</i>
  </separator>
  <separator name="linear response parameters" >
   <i type="logical" name="LEPSILON"> F  </i>
   <i type="logical" name="LRPA"> F  </i>
   <i type="logical" name="LNABLA"> F  </i>
   <i type="logical" name="LVEL"> F  </i>
   <i type="int" name="KINTER">     0</i>
   <i name="CSHIFT">      0.10000000</i>
   <i name="OMEGAMAX">     -1.00000000</i>
   <i name="DEG_THRESHOLD">      0.00200000</i>
   <i name="RTIME">     -0.10000000</i>
   <i name="WPLASMAI">      0.00000000</i>
   <v name="DFIELD">      0.00000000      0.00000000      0.00000000</v>
   <v name="WPLASMA">      0.00000000      0.00000000      0.00000000      0.00000000      0.00000000      0.00000000      0.00000000      0.00000000      0.00000000</v>
  </separator>
  <separator name="orbital magnetization" >
   <i type="logical" name="NUCIND"> F  </i>
   <v name="MAGPOS">      0.00000000      0.00000000      0.00000000</v>
   <i type="logical" name="LNICSALL"> T  </i>
   <i type="logical" name="ORBITALMAG"> F  </i>
   <i type="logical" name="LMAGBLOCH"> F  </i>
   <i type="logical" name="LCHIMAG"> F  </i>
   <i type="logical" name="LGAUGE"> T  </i>
   <i type="int" name="MAGATOM">     0</i>
   <v name="MAGDIPOL">      0.00000000      0.00000000      0.00000000</v>
   <v name="AVECCONST">      0.00000000      0.00000000      0.00000000</v>
  </separator>
  <separator name="response functions" >
   <i type="logical" name="LADDER"> F  </i>
   <i type="logical" name="LRPAFORCE"> F  </i>
   <i type="logical" name="LFXC"> F  </i>
   <i type="logical" name="LHARTREE"> T  </i>
   <i type="int" name="IBSE">     0</i>
   <v type="int" name="KPOINT">    -1     0     0     0</v>
   <i type="logical" name="LTCTE"> F  </i>
   <i type="logical" name="LTETE"> F  </i>
   <i type="logical" name="LTRIPLET"> F  </i>
   <i type="logical" name="LFXCEPS"> F  </i>
   <i type="logical" name="LFXHEG"> F  </i>
   <i type="int" name="NATURALO">     2</i>
   <i type="logical" name="L2ORDER"> F  </i>
   <i type="logical" name="LMP2LT"> F  </i>
   <i type="logical" name="LUSEW"> F  </i>
   <i name="ENCUTGW">     -2.00000000</i>
   <i name="ENCUTGWSOFT">     -2.00000000</i>
   <i name="ENCUTLF">     -1.00000000</i>
   <i type="int" name="LMAXMP2">    -1</i>
   <i name="SCISSOR">      0.00000000</i>
   <i type="int" name="NOMEGA">     0</i>
   <i type="int" name="NOMEGAR">     0</i>
   <i type="int" name="NBANDSGW">    -1</i>
   <i type="int" name="NBANDSO">    -1</i>
   <i type="int" name="NBANDSV">    -1</i>
   <i type="int" name="NELM">     1</i>
   <i type="int" name="NELMHF">     1</i>
   <i type="int" name="DIM">     3</i>
   <i type="int" name="ANTIRES">     0</i>
   <i name="OMEGAMAX">    -30.00000000</i>
   <i name="OMEGAMIN">    -30.00000000</i>
   <i name="OMEGATL">   -200.00000000</i>
   <i type="int" name="OMEGAGRID">   140</i>
   <i name="CSHIFT">     -0.10000000</i>
   <i type="logical" name="SELFENERGY"> F  </i>
   <i type="logical" name="LSPECTRAL"> F  </i>
   <i type="logical" name="LSPECTRALGW"> F  </i>
   <i type="logical" name="LSINGLES"> F  </i>
   <i type="logical" name="LFERMIGW"> F  </i>
   <i type="logical" name="ODDONLYGW"> F  </i>
   <i type="logical" name="EVENONLYGW"> F  </i>
   <i type="int" name="NKREDLFX">     1</i>
   <i type="int" name="NKREDLFY">     1</i>
   <i type="int" name="NKREDLFZ">     1</i>
   <i type="int" name="MAXMEM">  2800</i>
   <i type="int" name="TELESCOPE">     0</i>
   <i type="int" name="TAUPAR">     1</i>
   <i type="int" name="OMEGAPAR">    -1</i>
   <i name="LAMBDA">      1.00000000</i>
  </separator>
  <separator name="External order field" >
   <i name="OFIELD_KAPPA">      0.00000000</i>
   <v name="OFIELD_K">      0.00000000      0.00000000      0.00000000</v>
   <i name="OFIELD_Q6_NEAR">      0.00000000</i>
   <i name="OFIELD_Q6_FAR">      0.00000000</i>
   <i name="OFIELD_A">      0.00000000</i>
  </separator>
  <separator name="solvation model" >
   <i type="logical" name="LSOL"> F  </i>
  </separator>
 </parameters>
 <atominfo>
  <atoms>      29 </atoms>
  <types>       5 </types>
  <array name="atoms" >
   <dimension dim="1">ion</dimension>
   <field type="string">element</field>
   <field type="int">atomtype</field>
   <set>
    <rc><c>Nb</c><c>   1</c></rc>
    <rc><c>Nb</c><c>   1</c></rc>
    <rc><c>Nb</c><c>   1</c></rc>
    <rc><c>Nb</c><c>   1</c></rc>
    <rc><c>Nb</c><c>   1</c></rc>
    <rc><c>Nb</c><c>   1</c></rc>
    <rc><c>Mo</c><c>   2</c></rc>
    <rc><c>Mo</c><c>   2</c></rc>
    <rc><c>Mo</c><c>   2</c></rc>
    <rc><c>Mo</c><c>   2</c></rc>
    <rc><c>Mo</c><c>   2</c></rc>
    <rc><c>Mo</c><c>   2</c></rc>
    <rc><c>Ta</c><c>   3</c></rc>
    <rc><c>Ta</c><c>   3</c></rc>
    <rc><c>Ta</c><c>   3</c></rc>
    <rc><c>Ta</c><c>   3</c></rc>
    <rc><c>Ta</c><c>   3</c></rc>
    <rc><c>Ti</c><c>   4</c></rc>
    <rc><c>Ti</c><c>   4</c></rc>
    <rc><c>Ti</c><c>   4</c></rc>
    <rc><c>Ti</c><c>   4</c></rc>
    <rc><c>Ti</c><c>   4</c></rc>
    <rc><c>Ti</c><c>   4</c></rc>
    <rc><c>V </c><c>   5</c></rc>
    <rc><c>V </c><c>   5</c></rc>
    <rc><c>V </c><c>   5</c></rc>
    <rc><c>V </c><c>   5</c></rc>
    <rc><c>V </c><c>   5</c></rc>
    <rc><c>V </c><c>   5</c></rc>
   </set>
  </array>
  <array name="atomtypes" >
   <dimension dim="1">type</dimension>
   <field type="int">atomspertype</field>
   <field type="string">element</field>
   <field>mass</field>
   <field>valence</field>
   <field type="string">pseudopotential</field>
   <set>
    <rc><c>   6</c><c>Nb</c><c>     92.91000000</c><c>     13.00000000</c><c>  PAW_PBE Nb_sv 25May2007               </c></rc>
    <rc><c>   6</c><c>Mo</c><c>     95.94000000</c><c>      6.00000000</c><c>  PAW_PBE Mo 08Apr2002                  </c></rc>
    <rc><c>   5</c><c>Ta</c><c>    180.94800000</c><c>      5.00000000</c><c>  PAW_PBE Ta 17Jan2003                  </c></rc>
    <rc><c>   6</c><c>Ti</c><c>     47.88000000</c><c>      4.00000000</c><c>  PAW_PBE Ti 08Apr2002                  </c></rc>
    <rc><c>   6</c><c>V </c><c>     50.94100000</c><c>      5.00000000</c><c>  PAW_PBE V 08Apr2002                   </c></rc>
   </set>
  </array>
 </atominfo>
 <structure name="initialpos" >
  <crystal>
   <varray name="basis" >
    <v>      -3.16000000      -3.16000000      -3.16000000 </v>
    <v>       1.58000000       1.58000000      -7.90000000 </v>
    <v>       7.90000000      -7.90000000      -1.58000000 </v>
   </varray>
   <i name="volume">    473.31744000 </i>
   <varray name="rec_basis" >
    <v>      -0.13713080      -0.12658228      -0.05274262 </v>
    <v>       0.04219409       0.06329114      -0.10548523 </v>
    <v>       0.06329114      -0.06329114       0.00000000 </v>
   </varray>
  </crystal>
  <varray name="positions" >
   <v>       0.96666667       0.93333333       0.40000000 </v>
   <v>       0.63333333       0.26666667       0.40000000 </v>
   <v>       0.50000000       0.00000000       0.00000000 </v>
   <v>       0.00000000       0.00000000       0.00000000 </v>
   <v>       0.10000000       0.20000000       0.80000000 </v>
   <v>       0.03333333       0.06666667       0.60000000 </v>
   <v>       0.90000000       0.80000000       0.20000000 </v>
   <v>       0.80000000       0.60000000       0.40000000 </v>
   <v>       0.73333333       0.46666667       0.20000000 </v>
   <v>       0.66666667       0.33333333       0.00000000 </v>
   <v>       0.36666667       0.73333333       0.60000000 </v>
   <v>       0.13333333       0.26666667       0.40000000 </v>
   <v>       0.83333333       0.66666667       0.00000000 </v>
   <v>       0.93333333       0.86666667       0.80000000 </v>
   <v>       0.40000000       0.80000000       0.20000000 </v>
   <v>       0.43333333       0.86666667       0.80000000 </v>
   <v>       0.30000000       0.60000000       0.40000000 </v>
   <v>       0.86666667       0.73333333       0.60000000 </v>
   <v>       0.46666667       0.93333333       0.40000000 </v>
   <v>       0.16666667       0.33333333       0.00000000 </v>
   <v>       0.26666667       0.53333333       0.80000000 </v>
   <v>       0.20000000       0.40000000       0.60000000 </v>
   <v>       0.06666667       0.13333333       0.20000000 </v>
   <v>       0.76666667       0.53333333       0.80000000 </v>
   <v>       0.70000000       0.40000000       0.60000000 </v>
   <v>       0.60000000       0.20000000       0.80000000 </v>
   <v>       0.53333333       0.06666667       0.60000000 </v>
   <v>       0.33333333       0.66666667       0.00000000 </v>
   <v>       0.23333333       0.46666667       0.20000000 </v>
  </varray>
 </structure>
 <calculation>
  <scstep>
   <time name="dav">   43.71   43.76</time>
   <time name="total">   43.85   43.92</time>
   <energy>
    <i name="alphaZ">   1153.76813855 </i>
    <i name="ewald"> -11143.55490910 </i>
    <i name="hartreedc">   -110.04151407 </i>
    <i name="XCdc">   -916.44666571 </i>
    <i name="pawpsdc"> 522046.69104729 </i>
    <i name="pawaedc">-520810.94808502 </i>
    <i name="eentropy">     -0.00199635 </i>
    <i name="bandstr">  -7086.01742689 </i>
    <i name="atom">  12875.17371654 </i>
    <i name="e_fr_energy">  -3991.37769477 </i>
    <i name="e_wo_entrp">  -3991.37569842 </i>
    <i name="e_0_energy">  -3991.37702932 </i>
   </energy>
  </scstep>
  <scstep>
   <time name="dav">   48.01   48.07</time>
   <time name="total">   48.02   48.07</time>
   <energy>
    <i name="e_fr_energy">  -9552.62348664 </i>
    <i name="e_wo_entrp">  -9552.62479663 </i>
    <i name="e_0_energy">  -9552.62392330 </i>
   </energy>
  </scstep>
  <scstep>
   <time name="dav">   56.24   56.32</time>
   <time name="total">   56.25   56.33</time>
   <energy>
    <i name="e_fr_energy"> -10466.08364554 </i>
    <i name="e_wo_entrp"> -10466.08431036 </i>
    <i name="e_0_energy"> -10466.08386715 </i>
   </energy>
  </scstep>
  <scstep>
   <time name="dav">   56.20   56.26</time>
   <time name="total">   56.21   56.27</time>
   <energy>
    <i name="e_fr_energy"> -10731.64013329 </i>
    <i name="e_wo_entrp"> -10731.64307137 </i>
    <i name="e_0_energy"> -10731.64111265 </i>
   </energy>
  </scstep>
  <scstep>
   <time name="dav">   56.37   56.46</time>
   <time name="total">   56.94   57.04</time>
   <energy>
    <i name="e_fr_energy"> -10885.37284600 </i>
    <i name="e_wo_entrp"> -10885.37305970 </i>
    <i name="e_0_energy"> -10885.37291723 </i>
   </energy>
  </scstep>
  <scstep>
   <time name="dav">   44.84   44.88</time>
   <time name="total">   45.55   45.60</time>
   <energy>
    <i name="e_fr_energy">   -722.99302470 </i>
    <i name="e_wo_entrp">   -722.98930343 </i>
    <i name="e_0_energy">   -722.99178428 </i>
   </energy>
  </scstep>
  <scstep>
   <time name="dav">   51.60   51.65</time>
   <time name="total">   52.29   52.35</time>
   <energy>
    <i name="e_fr_energy">   -720.29250980 </i>
    <i name="e_wo_entrp">   -720.29343711 </i>
    <i name="e_0_energy">   -720.29281890 </i>
   </energy>
  </scstep>
  <scstep>
   <time name="dav">   50.82   50.87</time>
   <time name="total">   51.47   51.52</time>
   <energy>
    <i name="e_fr_energy">   -597.62032495 </i>
    <i name="e_wo_entrp">   -597.62083531 </i>
    <i name="e_0_energy">   -597.62049507 </i>
   </energy>
  </scstep>
  <scstep>
   <time name="dav">   48.19   48.25</time>
   <time name="total">   48.85   48.92</time>
   <energy>
    <i name="e_fr_energy">   -486.88694043 </i>
    <i name="e_wo_entrp">   -486.88528591 </i>
    <i name="e_0_energy">   -486.88638892 </i>
   </energy>
  </scstep>
  <scstep>
   <time name="dav">   56.04   56.11</time>
   <time name="total">   56.69   56.75</time>
   <energy>
    <i name="e_fr_energy">   -570.78350797 </i>
    <i name="e_wo_entrp">   -570.78403846 </i>
    <i name="e_0_energy">   -570.78368480 </i>
   </energy>
  </scstep>
  <scstep>
   <time name="dav">   51.70   51.76</time>
   <time name="total">   52.36   52.42</time>
   <energy>
    <i name="e_fr_energy">   -671.93938074 </i>
    <i name="e_wo_entrp">   -671.93797684 </i>
    <i name="e_0_energy">   -671.93891277 </i>
   </energy>
  </scstep>
  <scstep>
   <time name="dav">   51.32   51.38</time>
   <time name="total">   51.97   52.03</time>
   <energy>
    <i name="e_fr_energy">   -910.57246819 </i>
    <i name="e_wo_entrp">   -910.57800179 </i>
    <i name="e_0_energy">   -910.57431272 </i>
   </energy>
  </scstep>
  <scstep>
   <time name="dav">   52.68   52.73</time>
   <time name="total">   53.32   53.40</time>
   <energy>
    <i name="e_fr_energy">   -827.33929714 </i>
    <i name="e_wo_entrp">   -827.33672874 </i>
    <i name="e_0_energy">   -827.33844101 </i>
   </energy>
  </scstep>
  <scstep>
   <time name="dav">   48.44   48.49</time>
   <time name="total">   49.09   49.14</time>
   <energy>
    <i name="e_fr_energy">   -682.37446680 </i>
    <i name="e_wo_entrp">   -682.38156588 </i>
    <i name="e_0_energy">   -682.37683316 </i>
   </energy>
  </scstep>
  <scstep>
   <time name="dav">   53.85   53.90</time>
   <time name="total">   54.52   54.58</time>
   <energy>
    <i name="e_fr_energy">   -524.37200568 </i>
    <i name="e_wo_entrp">   -524.36678562 </i>
    <i name="e_0_energy">   -524.37026566 </i>
   </energy>
  </scstep>
  <scstep>
   <time name="dav">   52.37   52.43</time>
   <time name="total">   53.02   53.08</time>
   <energy>
    <i name="e_fr_energy">   -479.40062745 </i>
    <i name="e_wo_entrp">   -479.39718776 </i>
    <i name="e_0_energy">   -479.39948089 </i>
   </energy>
  </scstep>
  <scstep>
   <time name="dav">   48.30   48.35</time>
   <time name="total">   48.96   49.02</time>
   <energy>
    <i name="e_fr_energy">   -415.16779005 </i>
    <i name="e_wo_entrp">   -415.15818144 </i>
    <i name="e_0_energy">   -415.16458718 </i>
   </energy>
  </scstep>
  <scstep>
   <time name="dav">   51.60   51.65</time>
   <time name="total">   52.24   52.29</time>
   <energy>
    <i name="e_fr_energy">   -407.06155572 </i>
    <i name="e_wo_entrp">   -407.06164847 </i>
    <i name="e_0_energy">   -407.06158664 </i>
   </energy>
  </scstep>
  <scstep>
   <time name="dav">   50.51   50.56</time>
   <time name="total">   51.16   51.22</time>
   <energy>
    <i name="e_fr_energy">   -394.59066111 </i>
    <i name="e_wo_entrp">   -394.58911806 </i>
    <i name="e_0_energy">   -394.59014676 </i>
   </energy>
  </scstep>
  <scstep>
   <time name="dav">   49.89   49.94</time>
   <time name="total">   50.54   50.59</time>
   <energy>
    <i name="e_fr_energy">   -378.05342720 </i>
    <i name="e_wo_entrp">   -378.04783313 </i>
    <i name="e_0_energy">   -378.05156251 </i>
   </energy>
  </scstep>
  <scstep>
   <time name="dav">   51.16   51.21</time>
   <time name="total">   51.82   51.88</time>
   <energy>
    <i name="e_fr_energy">   -357.13239396 </i>
    <i name="e_wo_entrp">   -357.12345837 </i>
    <i name="e_0_energy">   -357.12941543 </i>
   </energy>
  </scstep>
  <scstep>
   <time name="dav">   52.48   52.53</time>
   <time name="total">   53.12   53.18</time>
   <energy>
    <i name="e_fr_energy">   -323.58701329 </i>
    <i name="e_wo_entrp">   -323.58169229 </i>
    <i name="e_0_energy">   -323.58523962 </i>
   </energy>
  </scstep>
  <scstep>
   <time name="dav">   51.09   51.14</time>
   <time name="total">   51.75   51.81</time>
   <energy>
    <i name="e_fr_energy">   -314.84352776 </i>
    <i name="e_wo_entrp">   -314.84406368 </i>
    <i name="e_0_energy">   -314.84370640 </i>
   </energy>
  </scstep>
  <scstep>
   <time name="dav">   50.95   51.00</time>
   <time name="total">   51.60   51.65</time>
   <energy>
    <i name="e_fr_energy">   -310.05158675 </i>
    <i name="e_wo_entrp">   -310.04476629 </i>
    <i name="e_0_energy">   -310.04931326 </i>
   </energy>
  </scstep>
  <scstep>
   <time name="dav">   51.09   51.14</time>
   <time name="total">   51.75   51.81</time>
   <energy>
    <i name="e_fr_energy">   -308.03752029 </i>
    <i name="e_wo_entrp">   -308.03195521 </i>
    <i name="e_0_energy">   -308.03566526 </i>
   </energy>
  </scstep>
  <scstep>
   <time name="dav">   51.20   51.25</time>
   <time name="total">   51.85   51.90</time>
   <energy>
    <i name="e_fr_energy">   -307.65537807 </i>
    <i name="e_wo_entrp">   -307.64343438 </i>
    <i name="e_0_energy">   -307.65139684 </i>
   </energy>
  </scstep>
  <scstep>
   <time name="dav">   49.72   49.77</time>
   <time name="total">   50.39   50.45</time>
   <energy>
    <i name="e_fr_energy">   -305.03283992 </i>
    <i name="e_wo_entrp">   -305.01338120 </i>
    <i name="e_0_energy">   -305.02635368 </i>
   </energy>
  </scstep>
  <scstep>
   <time name="dav">   49.26   49.31</time>
   <time name="total">   49.91   49.96</time>
   <energy>
    <i name="e_fr_energy">   -304.65565399 </i>
    <i name="e_wo_entrp">   -304.62324616 </i>
    <i name="e_0_energy">   -304.64485138 </i>
   </energy>
  </scstep>
  <scstep>
   <time name="dav">   48.23   48.27</time>
   <time name="total">   48.89   48.95</time>
   <energy>
    <i name="e_fr_energy">   -304.54576631 </i>
    <i name="e_wo_entrp">   -304.52322585 </i>
    <i name="e_0_energy">   -304.53825282 </i>
   </energy>
  </scstep>
  <scstep>
   <time name="dav">   51.22   51.27</time>
   <time name="total">   51.87   51.92</time>
   <energy>
    <i name="e_fr_energy">   -303.90541438 </i>
    <i name="e_wo_entrp">   -303.87535711 </i>
    <i name="e_0_energy">   -303.89539529 </i>
   </energy>
  </scstep>
  <scstep>
   <time name="dav">   52.00   52.06</time>
   <time name="total">   52.67   52.73</time>
   <energy>
    <i name="e_fr_energy">   -303.75397096 </i>
    <i name="e_wo_entrp">   -303.72319537 </i>
    <i name="e_0_energy">   -303.74371243 </i>
   </energy>
  </scstep>
  <scstep>
   <time name="dav">   52.63   52.68</time>
   <time name="total">   53.27   53.33</time>
   <energy>
    <i name="e_fr_energy">   -303.67203173 </i>
    <i name="e_wo_entrp">   -303.64247832 </i>
    <i name="e_0_energy">   -303.66218059 </i>
   </energy>
  </scstep>
  <scstep>
   <time name="dav">   47.47   47.51</time>
   <time name="total">   48.13   48.18</time>
   <energy>
    <i name="e_fr_energy">   -303.44850940 </i>
    <i name="e_wo_entrp">   -303.41903246 </i>
    <i name="e_0_energy">   -303.43868375 </i>
   </energy>
  </scstep>
  <scstep>
   <time name="dav">   50.85   50.90</time>
   <time name="total">   51.50   51.55</time>
   <energy>
    <i name="e_fr_energy">   -303.42644828 </i>
    <i name="e_wo_entrp">   -303.39434409 </i>
    <i name="e_0_energy">   -303.41574688 </i>
   </energy>
  </scstep>
  <scstep>
   <time name="dav">   50.99   51.04</time>
   <time name="total">   51.65   51.71</time>
   <energy>
    <i name="e_fr_energy">   -303.38498086 </i>
    <i name="e_wo_entrp">   -303.35483154 </i>
    <i name="e_0_energy">   -303.37493109 </i>
   </energy>
  </scstep>
  <scstep>
   <time name="dav">   49.09   49.14</time>
   <time name="total">   49.73   49.78</time>
   <energy>
    <i name="e_fr_energy">   -303.34362826 </i>
    <i name="e_wo_entrp">   -303.31457999 </i>
    <i name="e_0_energy">   -303.33394550 </i>
   </energy>
  </scstep>
  <scstep>
   <time name="dav">   52.87   52.93</time>
   <time name="total">   53.54   53.61</time>
   <energy>
    <i name="e_fr_energy">   -303.34123081 </i>
    <i name="e_wo_entrp">   -303.31196893 </i>
    <i name="e_0_energy">   -303.33147685 </i>
   </energy>
  </scstep>
  <scstep>
   <time name="dav">   46.54   46.58</time>
   <time name="total">   47.19   47.23</time>
   <energy>
    <i name="e_fr_energy">   -303.36389209 </i>
    <i name="e_wo_entrp">   -303.33714382 </i>
    <i name="e_0_energy">   -303.35497600 </i>
   </energy>
  </scstep>
  <scstep>
   <time name="dav">   50.94   50.99</time>
   <time name="total">   51.60   51.67</time>
   <energy>
    <i name="e_fr_energy">   -303.34924953 </i>
    <i name="e_wo_entrp">   -303.32298871 </i>
    <i name="e_0_energy">   -303.34049592 </i>
   </energy>
  </scstep>
  <scstep>
   <time name="dav">   48.30   48.35</time>
   <time name="total">   48.95   49.00</time>
   <energy>
    <i name="e_fr_energy">   -303.33274445 </i>
    <i name="e_wo_entrp">   -303.30510390 </i>
    <i name="e_0_energy">   -303.32353093 </i>
   </energy>
  </scstep>
  <scstep>
   <time name="dav">   48.04   48.09</time>
   <time name="total">   48.70   48.76</time>
   <energy>
    <i name="e_fr_energy">   -303.27481511 </i>
    <i name="e_wo_entrp">   -303.24677485 </i>
    <i name="e_0_energy">   -303.26546835 </i>
   </energy>
  </scstep>
  <scstep>
   <time name="dav">   53.17   53.23</time>
   <time name="total">   53.82   53.88</time>
   <energy>
    <i name="e_fr_energy">   -303.27025008 </i>
    <i name="e_wo_entrp">   -303.24259567 </i>
    <i name="e_0_energy">   -303.26103194 </i>
   </energy>
  </scstep>
  <scstep>
   <time name="dav">   49.44   49.49</time>
   <time name="total">   50.11   50.17</time>
   <energy>
    <i name="e_fr_energy">   -303.27486059 </i>
    <i name="e_wo_entrp">   -303.24701116 </i>
    <i name="e_0_energy">   -303.26557745 </i>
   </energy>
  </scstep>
  <scstep>
   <time name="dav">   45.49   45.54</time>
   <time name="total">   46.14   46.19</time>
   <energy>
    <i name="e_fr_energy">   -303.26669670 </i>
    <i name="e_wo_entrp">   -303.23868423 </i>
    <i name="e_0_energy">   -303.25735921 </i>
   </energy>
  </scstep>
  <scstep>
   <time name="dav">   47.02   47.06</time>
   <time name="total">   47.68   47.73</time>
   <energy>
    <i name="e_fr_energy">   -303.25970846 </i>
    <i name="e_wo_entrp">   -303.23158003 </i>
    <i name="e_0_energy">   -303.25033232 </i>
   </energy>
  </scstep>
  <scstep>
   <time name="dav">   45.26   45.31</time>
   <time name="total">   45.91   45.96</time>
   <energy>
    <i name="e_fr_energy">   -303.25769677 </i>
    <i name="e_wo_entrp">   -303.22954475 </i>
    <i name="e_0_energy">   -303.24831277 </i>
   </energy>
  </scstep>
  <scstep>
   <time name="dav">   44.46   44.51</time>
   <time name="total">   45.14   45.20</time>
   <energy>
    <i name="e_fr_energy">   -303.25491381 </i>
    <i name="e_wo_entrp">   -303.22667305 </i>
    <i name="e_0_energy">   -303.24550022 </i>
   </energy>
  </scstep>
  <scstep>
   <time name="dav">   44.36   44.40</time>
   <time name="total">   45.01   45.05</time>
   <energy>
    <i name="e_fr_energy">   -303.25389425 </i>
    <i name="e_wo_entrp">   -303.22560321 </i>
    <i name="e_0_energy">   -303.24446391 </i>
   </energy>
  </scstep>
  <scstep>
   <time name="dav">   37.35   37.39</time>
   <time name="total">   38.02   38.07</time>
   <energy>
    <i name="e_fr_energy">   -303.25336708 </i>
    <i name="e_wo_entrp">   -303.22506452 </i>
    <i name="e_0_energy">   -303.24393289 </i>
   </energy>
  </scstep>
  <scstep>
   <time name="dav">   27.78   27.80</time>
   <time name="total">   28.42   28.45</time>
   <energy>
    <i name="e_fr_energy">   -303.25325855 </i>
    <i name="e_wo_entrp">   -303.22488995 </i>
    <i name="e_0_energy">   -303.24380235 </i>
   </energy>
  </scstep>
  <scstep>
   <time name="dav">   42.79   42.83</time>
   <time name="total">   43.47   43.52</time>
   <energy>
    <i name="e_fr_energy">   -303.25313956 </i>
    <i name="e_wo_entrp">   -303.22475485 </i>
    <i name="e_0_energy">   -303.24367799 </i>
   </energy>
  </scstep>
  <scstep>
   <time name="dav">   26.35   26.37</time>
   <time name="total">   26.42   26.44</time>
   <energy>
    <i name="alphaZ">   1153.76813855 </i>
    <i name="ewald"> -11143.55490910 </i>
    <i name="hartreedc">  -3031.78840480 </i>
    <i name="XCdc">   -823.55177863 </i>
    <i name="pawpsdc">  18471.29210814 </i>
    <i name="pawaedc"> -17033.21703913 </i>
    <i name="eentropy">     -0.02836999 </i>
    <i name="bandstr">   -771.34658669 </i>
    <i name="atom">  12875.17371654 </i>
    <i name="e_fr_energy">   -303.25312512 </i>
    <i name="e_wo_entrp">   -303.22475513 </i>
    <i name="e_0_energy">   -303.24366845 </i>
   </energy>
  </scstep>
  <structure>
   <crystal>
    <varray name="basis" >
     <v>      -3.16000000      -3.16000000      -3.16000000 </v>
     <v>       1.58000000       1.58000000      -7.90000000 </v>
     <v>       7.90000000      -7.90000000      -1.58000000 </v>
    </varray>
    <i name="volume">    473.31744000 </i>
    <varray name="rec_basis" >
     <v>      -0.13713080      -0.12658228      -0.05274262 </v>
     <v>       0.04219409       0.06329114      -0.10548523 </v>
     <v>       0.06329114      -0.06329114       0.00000000 </v>
    </varray>
   </crystal>
   <varray name="positions" >
    <v>       0.96666667       0.93333333       0.40000000 </v>
    <v>       0.63333333       0.26666667       0.40000000 </v>
    <v>       0.50000000       0.00000000       0.00000000 </v>
    <v>       0.00000000       0.00000000       0.00000000 </v>
    <v>       0.10000000       0.20000000       0.80000000 </v>
    <v>       0.03333333       0.06666667       0.60000000 </v>
    <v>       0.90000000       0.80000000       0.20000000 </v>
    <v>       0.80000000       0.60000000       0.40000000 </v>
    <v>       0.73333333       0.46666667       0.20000000 </v>
    <v>       0.66666667       0.33333333       0.00000000 </v>
    <v>       0.36666667       0.73333333       0.60000000 </v>
    <v>       0.13333333       0.26666667       0.40000000 </v>
    <v>       0.83333333       0.66666667       0.00000000 </v>
    <v>       0.93333333       0.86666667       0.80000000 </v>
    <v>       0.40000000       0.80000000       0.20000000 </v>
    <v>       0.43333333       0.86666667       0.80000000 </v>
    <v>       0.30000000       0.60000000       0.40000000 </v>
    <v>       0.86666667       0.73333333       0.60000000 </v>
    <v>       0.46666667       0.93333333       0.40000000 </v>
    <v>       0.16666667       0.33333333       0.00000000 </v>
    <v>       0.26666667       0.53333333       0.80000000 </v>
    <v>       0.20000000       0.40000000       0.60000000 </v>
    <v>       0.06666667       0.13333333       0.20000000 </v>
    <v>       0.76666667       0.53333333       0.80000000 </v>
    <v>       0.70000000       0.40000000       0.60000000 </v>
    <v>       0.60000000       0.20000000       0.80000000 </v>
    <v>       0.53333333       0.06666667       0.60000000 </v>
    <v>       0.33333333       0.66666667       0.00000000 </v>
    <v>       0.23333333       0.46666667       0.20000000 </v>
   </varray>
  </structure>
  <varray name="forces" >
   <v>      -0.12210360       0.33418529       0.08856349 </v>
   <v>      -0.08077549       0.27164344       0.37473512 </v>
   <v>       0.30979937      -0.21606869      -0.83793171 </v>
   <v>       0.26105630      -0.06181891      -0.19215982 </v>
   <v>       0.17683918       0.51475385      -0.55274192 </v>
   <v>      -0.30905741       0.50866591      -0.36916317 </v>
   <v>      -0.03517101      -0.51082529       0.13005746 </v>
   <v>      -0.49466417      -0.21252791       0.54084588 </v>
   <v>      -0.31025300       0.25542702      -0.13828149 </v>
   <v>       0.28775229       0.30982237      -0.39735556 </v>
   <v>      -0.13963800      -0.56388057       0.20655031 </v>
   <v>       0.43271314       0.28709970      -0.52403561 </v>
   <v>       0.15829963      -0.59839116       0.54977015 </v>
   <v>       0.42674288       0.42135828      -0.07298752 </v>
   <v>      -0.61482705      -0.06018649       1.18529446 </v>
   <v>      -1.04930277      -0.05390365       0.73953267 </v>
   <v>       0.17062513      -0.17015828      -0.19654131 </v>
   <v>       0.10946274       0.29268096       0.46874060 </v>
   <v>       0.25199328      -0.24856763      -0.16891384 </v>
   <v>       0.12047054       0.28349919      -0.28287344 </v>
   <v>      -0.39627744      -0.14200587      -0.22424463 </v>
   <v>      -0.41952490      -0.12240380       0.49857684 </v>
   <v>       0.63332636       0.05424614      -0.67805220 </v>
   <v>      -0.07779821      -0.21702694       0.54615822 </v>
   <v>       0.73167252       0.06094589      -0.41727933 </v>
   <v>       0.04421785       0.24046153      -0.22533286 </v>
   <v>       0.06976248      -0.30437358      -0.53478061 </v>
   <v>      -0.19100785      -0.36242580       0.49632517 </v>
   <v>       0.05566719       0.00977501      -0.01247536 </v>
  </varray>
  <varray name="stress" >
   <v>     -25.46599093      -0.31636465      -3.73372191 </v>
   <v>      -0.31636454     -26.08655872      -7.30091372 </v>
   <v>      -3.73372185      -7.30091376     -22.81895853 </v>
  </varray>
  <energy>
   <i name="e_fr_energy">   -303.25312512 </i>
   <i name="e_wo_entrp">   -303.24366845 </i>
   <i name="e_0_energy">     -0.02836999 </i>
  </energy>
  <time name="totalsc"> 2593.53 2596.53</time>
 </calculation>
 <calculation>
  <scstep>
   <time name="dav">   37.81   37.85</time>
   <time name="total">   38.46   38.50</time>
   <energy>
    <i name="alphaZ">   1197.00742506 </i>
    <i name="ewald"> -11321.63569526 </i>
    <i name="hartreedc">  -3030.43181367 </i>
    <i name="XCdc">   -818.81733536 </i>
    <i name="pawpsdc">  18471.69133761 </i>
    <i name="pawaedc"> -17033.62370832 </i>
    <i name="eentropy">     -0.02669007 </i>
    <i name="bandstr">   -643.78167985 </i>
    <i name="atom">  12875.17371654 </i>
    <i name="e_fr_energy">   -304.44444332 </i>
    <i name="e_wo_entrp">   -304.41775325 </i>
    <i name="e_0_energy">   -304.43554663 </i>
   </energy>
  </scstep>
  <scstep>
   <time name="dav">   52.45   52.51</time>
   <time name="total">   53.09   53.16</time>
   <energy>
    <i name="e_fr_energy">   -305.53982137 </i>
    <i name="e_wo_entrp">   -305.53449522 </i>
    <i name="e_0_energy">   -305.53804599 </i>
   </energy>
  </scstep>
  <scstep>
   <time name="dav">   51.43   51.48</time>
   <time name="total">   52.09   52.15</time>
   <energy>
    <i name="e_fr_energy">   -304.65013974 </i>
    <i name="e_wo_entrp">   -304.62409546 </i>
    <i name="e_0_energy">   -304.64145831 </i>
   </energy>
  </scstep>
  <scstep>
   <time name="dav">   49.91   49.96</time>
   <time name="total">   50.55   50.60</time>
   <energy>
    <i name="e_fr_energy">   -304.34079872 </i>
    <i name="e_wo_entrp">   -304.32030739 </i>
    <i name="e_0_energy">   -304.33396827 </i>
   </energy>
  </scstep>
  <scstep>
   <time name="dav">   51.65   51.71</time>
   <time name="total">   52.32   52.38</time>
   <energy>
    <i name="e_fr_energy">   -303.85255887 </i>
    <i name="e_wo_entrp">   -303.82727775 </i>
    <i name="e_0_energy">   -303.84413183 </i>
   </energy>
  </scstep>
  <scstep>
   <time name="dav">   52.36   52.41</time>
   <time name="total">   53.00   53.06</time>
   <energy>
    <i name="e_fr_energy">   -303.77618137 </i>
    <i name="e_wo_entrp">   -303.75575603 </i>
    <i name="e_0_energy">   -303.76937292 </i>
   </energy>
  </scstep>
  <scstep>
   <time name="dav">   56.34   56.40</time>
   <time name="total">   57.01   57.08</time>
   <energy>
    <i name="e_fr_energy">   -303.71278581 </i>
    <i name="e_wo_entrp">   -303.68663660 </i>
    <i name="e_0_energy">   -303.70406941 </i>
   </energy>
  </scstep>
  <scstep>
   <time name="dav">   52.78   52.83</time>
   <time name="total">   53.42   53.48</time>
   <energy>
    <i name="e_fr_energy">   -303.70030223 </i>
    <i name="e_wo_entrp">   -303.67349939 </i>
    <i name="e_0_energy">   -303.69136795 </i>
   </energy>
  </scstep>
  <scstep>
   <time name="dav">   51.53   51.58</time>
   <time name="total">   52.18   52.24</time>
   <energy>
    <i name="e_fr_energy">   -303.68060719 </i>
    <i name="e_wo_entrp">   -303.65482001 </i>
    <i name="e_0_energy">   -303.67201146 </i>
   </energy>
  </scstep>
  <scstep>
   <time name="dav">   52.15   52.20</time>
   <time name="total">   52.79   52.85</time>
   <energy>
    <i name="e_fr_energy">   -303.67658066 </i>
    <i name="e_wo_entrp">   -303.64966205 </i>
    <i name="e_0_energy">   -303.66760779 </i>
   </energy>
  </scstep>
  <scstep>
   <time name="dav">   53.16   53.21</time>
   <time name="total">   53.81   53.87</time>
   <energy>
    <i name="e_fr_energy">   -303.68130919 </i>
    <i name="e_wo_entrp">   -303.65442294 </i>
    <i name="e_0_energy">   -303.67234711 </i>
   </energy>
  </scstep>
  <scstep>
   <time name="dav">   49.83   49.88</time>
   <time name="total">   50.48   50.52</time>
   <energy>
    <i name="e_fr_energy">   -303.68657203 </i>
    <i name="e_wo_entrp">   -303.66086425 </i>
    <i name="e_0_energy">   -303.67800277 </i>
   </energy>
  </scstep>
  <scstep>
   <time name="dav">   51.40   51.45</time>
   <time name="total">   52.05   52.11</time>
   <energy>
    <i name="e_fr_energy">   -303.68222525 </i>
    <i name="e_wo_entrp">   -303.65535612 </i>
    <i name="e_0_energy">   -303.67326887 </i>
   </energy>
  </scstep>
  <scstep>
   <time name="dav">   51.08   51.13</time>
   <time name="total">   51.72   51.77</time>
   <energy>
    <i name="e_fr_energy">   -303.68216053 </i>
    <i name="e_wo_entrp">   -303.65552771 </i>
    <i name="e_0_energy">   -303.67328293 </i>
   </energy>
  </scstep>
  <scstep>
   <time name="dav">   44.56   44.61</time>
   <time name="total">   45.22   45.27</time>
   <energy>
    <i name="e_fr_energy">   -303.68182236 </i>
    <i name="e_wo_entrp">   -303.65503544 </i>
    <i name="e_0_energy">   -303.67289339 </i>
   </energy>
  </scstep>
  <scstep>
   <time name="dav">   44.72   44.77</time>
   <time name="total">   45.37   45.42</time>
   <energy>
    <i name="e_fr_energy">   -303.68159526 </i>
    <i name="e_wo_entrp">   -303.65481215 </i>
    <i name="e_0_energy">   -303.67266756 </i>
   </energy>
  </scstep>
  <scstep>
   <time name="dav">   38.88   38.92</time>
   <time name="total">   38.97   39.02</time>
   <energy>
    <i name="alphaZ">   1197.00742506 </i>
    <i name="ewald"> -11321.63569526 </i>
    <i name="hartreedc">  -2960.05426964 </i>
    <i name="XCdc">   -821.07941012 </i>
    <i name="pawpsdc">  19327.08377004 </i>
    <i name="pawaedc"> -17890.26220522 </i>
    <i name="eentropy">     -0.02672347 </i>
    <i name="bandstr">   -709.88819916 </i>
    <i name="atom">  12875.17371654 </i>
    <i name="e_fr_energy">   -303.68159123 </i>
    <i name="e_wo_entrp">   -303.65486776 </i>
    <i name="e_0_energy">   -303.67268341 </i>
   </energy>
  </scstep>
  <structure>
   <crystal>
    <varray name="basis" >
     <v>      -3.11416251      -3.10765906      -3.10742649 </v>
     <v>       1.57447629       1.58784376      -7.81997549 </v>
     <v>       7.80525783      -7.79428031      -1.54843213 </v>
    </varray>
    <i name="volume">    456.21987822 </i>
    <varray name="rec_basis" >
     <v>      -0.13898945      -0.12844455      -0.05406481 </v>
     <v>       0.04254123       0.06373316      -0.10637137 </v>
     <v>       0.06408297      -0.06410340      -0.00011369 </v>
    </varray>
   </crystal>
   <varray name="positions" >
    <v>       0.96520835       0.93365447       0.39860680 </v>
    <v>       0.63125538       0.26542468       0.39892395 </v>
    <v>       0.50140203       0.00423502       0.00160565 </v>
    <v>      -0.00086058       0.00132052       0.00098585 </v>
    <v>       0.09709310       0.20474452       0.79896823 </v>
    <v>       0.03321098       0.06946932       0.59750322 </v>
    <v>       0.90302119       0.79770684       0.20145233 </v>
    <v>       0.80319416       0.59559186       0.39913854 </v>
    <v>       0.73417787       0.46751874       0.19827279 </v>
    <v>       0.66388210       0.33688715      -0.00006739 </v>
    <v>       0.37050833       0.73027626       0.60129535 </v>
    <v>       0.13005085       0.27109085       0.40044461 </v>
    <v>       0.83454141       0.66236409       0.00231043 </v>
    <v>       0.92812281       0.86919330       0.80001644 </v>
    <v>       0.40141905       0.79253289       0.19830650 </v>
    <v>       0.43872252       0.86060277       0.79696072 </v>
    <v>       0.30041041       0.60082794       0.40104053 </v>
    <v>       0.86296252       0.73206443       0.59944057 </v>
    <v>       0.46694731       0.93394690       0.40152838 </v>
    <v>       0.16485821       0.33588368      -0.00049778 </v>
    <v>       0.27072602       0.53323425       0.79922362 </v>
    <v>       0.20225427       0.39623509       0.59909279 </v>
    <v>       0.06387087       0.13823866       0.20176812 </v>
    <v>       0.76711699       0.52973297       0.80042511 </v>
    <v>       0.69584915       0.40379894       0.60204795 </v>
    <v>       0.59881240       0.20197091       0.79940080 </v>
    <v>       0.53609124       0.06860076       0.60114236 </v>
    <v>       0.33554729       0.66264551       0.00052340 </v>
    <v>       0.23293711       0.46687332       0.20014012 </v>
   </varray>
  </structure>
  <varray name="forces" >
   <v>      -0.08484574       0.33196256       0.03182025 </v>
   <v>      -0.14997209       0.36995698       0.32555225 </v>
   <v>       0.29416267      -0.21274990      -0.50938508 </v>
   <v>       0.14517778      -0.12162871      -0.30587488 </v>
   <v>       0.01776304       0.23848072      -0.22064434 </v>
   <v>      -0.07672226       0.24201892      -0.22884570 </v>
   <v>       0.04694231      -0.16413708       0.04822857 </v>
   <v>      -0.10498674      -0.16664108       0.18749406 </v>
   <v>      -0.19003063      -0.04539756       0.25021714 </v>
   <v>       0.29050112       0.24969206      -0.11741273 </v>
   <v>      -0.15716446      -0.30904616       0.22603619 </v>
   <v>       0.12405031       0.17324520      -0.18463927 </v>
   <v>      -0.05370566      -0.19733595       0.06641914 </v>
   <v>       0.12932956       0.19995057      -0.07437305 </v>
   <v>      -0.21520527       0.02251802       0.39323781 </v>
   <v>      -0.20646576       0.03953590       0.37704661 </v>
   <v>       0.10229324      -0.26255610      -0.01572071 </v>
   <v>       0.03835676       0.12883442       0.34250225 </v>
   <v>       0.01976927      -0.04623699      -0.12036279 </v>
   <v>       0.07394887       0.17525098      -0.24579247 </v>
   <v>      -0.32492830      -0.11788218      -0.12251663 </v>
   <v>      -0.21368573      -0.07672965       0.26582314 </v>
   <v>       0.30444788      -0.03250823      -0.47760160 </v>
   <v>      -0.15889405      -0.11822320       0.42120597 </v>
   <v>       0.61842667      -0.07493754      -0.27683448 </v>
   <v>       0.02219619       0.29438175      -0.26469780 </v>
   <v>       0.05048043      -0.27274236      -0.36966401 </v>
   <v>      -0.21023606      -0.20044843       0.49410299 </v>
   <v>      -0.13100338      -0.04662695       0.10467917 </v>
  </varray>
  <varray name="stress" >
   <v>      43.94333474      -0.60462532      -1.84569695 </v>
   <v>      -0.60462531      41.43292810      -4.21376299 </v>
   <v>      -1.84569698      -4.21376288      43.78833767 </v>
  </varray>
  <energy>
   <i name="e_fr_energy">   -303.68159123 </i>
   <i name="e_wo_entrp">   -303.67268341 </i>
   <i name="e_0_energy">     -0.02672347 </i>
  </energy>
  <time name="totalsc">  871.88  872.86</time>
 </calculation>
 <calculation>
  <scstep>
   <time name="dav">   39.74   39.78</time>
   <time name="total">   40.39   40.43</time>
   <energy>
    <i name="alphaZ">   1192.69313719 </i>
    <i name="ewald"> -11304.36143210 </i>
    <i name="hartreedc">  -2960.14050716 </i>
    <i name="XCdc">   -821.53701219 </i>
    <i name="pawpsdc">  19326.71410945 </i>
    <i name="pawaedc"> -17889.80342359 </i>
    <i name="eentropy">     -0.02669491 </i>
    <i name="bandstr">   -722.40755832 </i>
    <i name="atom">  12875.17371654 </i>
    <i name="e_fr_energy">   -303.69566509 </i>
    <i name="e_wo_entrp">   -303.66897019 </i>
    <i name="e_0_energy">   -303.68676679 </i>
   </energy>
  </scstep>
  <scstep>
   <time name="dav">   52.60   52.65</time>
   <time name="total">   53.26   53.32</time>
   <energy>
    <i name="e_fr_energy">   -303.70525669 </i>
    <i name="e_wo_entrp">   -303.67651717 </i>
    <i name="e_0_energy">   -303.69567685 </i>
   </energy>
  </scstep>
  <scstep>
   <time name="dav">   52.05   52.10</time>
   <time name="total">   52.69   52.75</time>
   <energy>
    <i name="e_fr_energy">   -303.69795475 </i>
    <i name="e_wo_entrp">   -303.67207560 </i>
    <i name="e_0_energy">   -303.68932837 </i>
   </energy>
  </scstep>
  <scstep>
   <time name="dav">   51.17   51.23</time>
   <time name="total">   51.83   51.90</time>
   <energy>
    <i name="e_fr_energy">   -303.69438189 </i>
    <i name="e_wo_entrp">   -303.66747439 </i>
    <i name="e_0_energy">   -303.68541272 </i>
   </energy>
  </scstep>
  <scstep>
   <time name="dav">   50.56   50.61</time>
   <time name="total">   51.21   51.26</time>
   <energy>
    <i name="e_fr_energy">   -303.68988191 </i>
    <i name="e_wo_entrp">   -303.66292946 </i>
    <i name="e_0_energy">   -303.68089776 </i>
   </energy>
  </scstep>
  <scstep>
   <time name="dav">   51.43   51.49</time>
   <time name="total">   52.09   52.15</time>
   <energy>
    <i name="e_fr_energy">   -303.68849479 </i>
    <i name="e_wo_entrp">   -303.66118361 </i>
    <i name="e_0_energy">   -303.67939106 </i>
   </energy>
  </scstep>
  <scstep>
   <time name="dav">   52.62   52.67</time>
   <time name="total">   53.28   53.34</time>
   <energy>
    <i name="e_fr_energy">   -303.68788194 </i>
    <i name="e_wo_entrp">   -303.66098576 </i>
    <i name="e_0_energy">   -303.67891654 </i>
   </energy>
  </scstep>
  <scstep>
   <time name="dav">   46.05   46.10</time>
   <time name="total">   46.72   46.77</time>
   <energy>
    <i name="e_fr_energy">   -303.68773195 </i>
    <i name="e_wo_entrp">   -303.66075849 </i>
    <i name="e_0_energy">   -303.67874080 </i>
   </energy>
  </scstep>
  <scstep>
   <time name="dav">   45.33   45.38</time>
   <time name="total">   45.98   46.03</time>
   <energy>
    <i name="e_fr_energy">   -303.68755295 </i>
    <i name="e_wo_entrp">   -303.66048682 </i>
    <i name="e_0_energy">   -303.67853091 </i>
   </energy>
  </scstep>
  <scstep>
   <time name="dav">   36.24   36.27</time>
   <time name="total">   36.32   36.37</time>
   <energy>
    <i name="alphaZ">   1192.69313719 </i>
    <i name="ewald"> -11304.36143210 </i>
    <i name="hartreedc">  -2967.54586385 </i>
    <i name="XCdc">   -821.29197716 </i>
    <i name="pawpsdc">  19233.88359078 </i>
    <i name="pawaedc"> -17796.34294095 </i>
    <i name="eentropy">     -0.02702705 </i>
    <i name="bandstr">   -715.86867635 </i>
    <i name="atom">  12875.17371654 </i>
    <i name="e_fr_energy">   -303.68747295 </i>
    <i name="e_wo_entrp">   -303.66044590 </i>
    <i name="e_0_energy">   -303.67846394 </i>
   </energy>
  </scstep>
  <structure>
   <crystal>
    <varray name="basis" >
     <v>      -3.11863428      -3.11276529      -3.11255541 </v>
     <v>       1.57501517       1.58707855      -7.82778246 </v>
     <v>       7.81450061      -7.80459403      -1.55151180 </v>
    </varray>
    <i name="volume">    457.87014670 </i>
    <varray name="rec_basis" >
     <v>      -0.13880581      -0.12826029      -0.05393359 </v>
     <v>       0.04250712       0.06368981      -0.10628424 </v>
     <v>       0.06400487      -0.06402320      -0.00010235 </v>
    </varray>
   </crystal>
   <varray name="positions" >
    <v>       0.96535303       0.93362301       0.39874450 </v>
    <v>       0.63146210       0.26554697       0.39903046 </v>
    <v>       0.50126086       0.00381832       0.00144658 </v>
    <v>      -0.00077608       0.00119059       0.00088836 </v>
    <v>       0.09737931       0.20427799       0.79906990 </v>
    <v>       0.03322237       0.06919381       0.59774970 </v>
    <v>       0.90272248       0.79793222       0.20130889 </v>
    <v>       0.80287972       0.59602541       0.39922391 </v>
    <v>       0.73409414       0.46743501       0.19844335 </v>
    <v>       0.66415651       0.33653768      -0.00006091 </v>
    <v>       0.37012867       0.73057676       0.60116746 </v>
    <v>       0.13037412       0.27065575       0.40040044 </v>
    <v>       0.83442311       0.66278712       0.00208245 </v>
    <v>       0.92863810       0.86894493       0.80001482 </v>
    <v>       0.40128208       0.79326743       0.19847441 </v>
    <v>       0.43819172       0.86119926       0.79726132 </v>
    <v>       0.30036915       0.60074643       0.40093762 </v>
    <v>       0.86333033       0.73218939       0.59949611 </v>
    <v>       0.46691890       0.93388644       0.40137729 </v>
    <v>       0.16503642       0.33563291      -0.00044874 </v>
    <v>       0.27032390       0.53324392       0.79930018 </v>
    <v>       0.20203271       0.39660541       0.59918266 </v>
    <v>       0.06414541       0.13775614       0.20159312 </v>
    <v>       0.76707387       0.53008707       0.80038339 </v>
    <v>       0.69625843       0.40342526       0.60184544 </v>
    <v>       0.59892935       0.20177712       0.79945989 </v>
    <v>       0.53581680       0.06841036       0.60102921 </v>
    <v>       0.33532955       0.66304094       0.00047193 </v>
    <v>       0.23297626       0.46685299       0.20012628 </v>
   </varray>
  </structure>
  <varray name="forces" >
   <v>      -0.09663053       0.33603699       0.04171213 </v>
   <v>      -0.13697755       0.36228568       0.32943287 </v>
   <v>       0.29483741      -0.21896366      -0.54716913 </v>
   <v>       0.16597987      -0.11702443      -0.29094806 </v>
   <v>       0.03921956       0.27529060      -0.26074566 </v>
   <v>      -0.10183836       0.27215433      -0.25388680 </v>
   <v>       0.03397990      -0.20223559       0.05841009 </v>
   <v>      -0.14643103      -0.17516295       0.23356781 </v>
   <v>      -0.20753559      -0.00922944       0.20723310 </v>
   <v>       0.29138992       0.25741671      -0.15630727 </v>
   <v>      -0.16080376      -0.34666361       0.22492150 </v>
   <v>       0.15403257       0.18683924      -0.22030743 </v>
   <v>      -0.03615390      -0.22944205       0.10965303 </v>
   <v>       0.16599121       0.21395093      -0.07204797 </v>
   <v>      -0.24652330       0.01157509       0.47610162 </v>
   <v>      -0.30988430       0.03602044       0.43455515 </v>
   <v>       0.11133107      -0.25298750      -0.02699452 </v>
   <v>       0.05194763       0.14226078       0.36561583 </v>
   <v>       0.04609681      -0.06462367      -0.12413916 </v>
   <v>       0.08778250       0.18594704      -0.25534066 </v>
   <v>      -0.33433398      -0.12465023      -0.13952913 </v>
   <v>      -0.23653519      -0.07900849       0.28545056 </v>
   <v>       0.33663243      -0.02845744      -0.49968081 </v>
   <v>      -0.14870667      -0.12298323       0.43867941 </v>
   <v>       0.63297941      -0.06342352      -0.29472875 </v>
   <v>       0.01644336       0.29284565      -0.26528931 </v>
   <v>       0.05584963      -0.27412170      -0.38384115 </v>
   <v>      -0.21097586      -0.22279143       0.49368571 </v>
   <v>      -0.11116324      -0.04085456       0.09193702 </v>
  </varray>
  <varray name="stress" >
   <v>      37.19052737      -0.46182268      -1.81248473 </v>
   <v>      -0.46182268      34.99839311      -4.46427317 </v>
   <v>      -1.81248470      -4.46427302      37.54144352 </v>
  </varray>
  <energy>
   <i name="e_fr_energy">   -303.68747295 </i>
   <i name="e_wo_entrp">   -303.67846394 </i>
   <i name="e_0_energy">     -0.02702705 </i>
  </energy>
  <time name="totalsc">  503.16  503.75</time>
 </calculation>
 <calculation>
  <scstep>
   <time name="dav">   33.35   33.39</time>
   <time name="total">   34.00   34.04</time>
   <energy>
    <i name="alphaZ">   1177.61016378 </i>
    <i name="ewald"> -11290.21279721 </i>
    <i name="hartreedc">  -2921.99874387 </i>
    <i name="XCdc">   -823.12345213 </i>
    <i name="pawpsdc">  19234.29332545 </i>
    <i name="pawaedc"> -17796.81877904 </i>
    <i name="eentropy">     -0.02347813 </i>
    <i name="bandstr">   -758.64749099 </i>
    <i name="atom">  12875.17371654 </i>
    <i name="e_fr_energy">   -303.74753560 </i>
    <i name="e_wo_entrp">   -303.72405747 </i>
    <i name="e_0_energy">   -303.73970956 </i>
   </energy>
  </scstep>
  <scstep>
   <time name="dav">   49.68   49.73</time>
   <time name="total">   50.34   50.40</time>
   <energy>
    <i name="e_fr_energy">   -304.48107290 </i>
    <i name="e_wo_entrp">   -304.46063437 </i>
    <i name="e_0_energy">   -304.47426006 </i>
   </energy>
  </scstep>
  <scstep>
   <time name="dav">   51.88   51.93</time>
   <time name="total">   52.53   52.58</time>
   <energy>
    <i name="e_fr_energy">   -304.16789081 </i>
    <i name="e_wo_entrp">   -304.14473419 </i>
    <i name="e_0_energy">   -304.16017194 </i>
   </energy>
  </scstep>
  <scstep>
   <time name="dav">   49.52   49.57</time>
   <time name="total">   50.18   50.24</time>
   <energy>
    <i name="e_fr_energy">   -304.06515891 </i>
    <i name="e_wo_entrp">   -304.04337229 </i>
    <i name="e_0_energy">   -304.05789670 </i>
   </energy>
  </scstep>
  <scstep>
   <time name="dav">   49.98   50.03</time>
   <time name="total">   50.62   50.68</time>
   <energy>
    <i name="e_fr_energy">   -304.03813874 </i>
    <i name="e_wo_entrp">   -304.01447087 </i>
    <i name="e_0_energy">   -304.03024945 </i>
   </energy>
  </scstep>
  <scstep>
   <time name="dav">   50.79   50.84</time>
   <time name="total">   51.46   51.52</time>
   <energy>
    <i name="e_fr_energy">   -304.02127314 </i>
    <i name="e_wo_entrp">   -303.99710286 </i>
    <i name="e_0_energy">   -304.01321638 </i>
   </energy>
  </scstep>
  <scstep>
   <time name="dav">   52.96   53.02</time>
   <time name="total">   53.61   53.66</time>
   <energy>
    <i name="e_fr_energy">   -304.00980645 </i>
    <i name="e_wo_entrp">   -303.98701730 </i>
[...]
       <r>    4.7665    1.0000 </r>
       <r>    4.8008    1.0000 </r>
       <r>    4.8327    1.0000 </r>
       <r>    4.8818    1.0000 </r>
       <r>    4.9305    1.0000 </r>
       <r>    4.9613    1.0000 </r>
       <r>    5.0618    1.0000 </r>
       <r>    5.0939    1.0000 </r>
       <r>    5.1668    1.0000 </r>
       <r>    5.2122    1.0000 </r>
       <r>    5.2933    1.0000 </r>
       <r>    5.3229    1.0000 </r>
       <r>    5.3679    1.0000 </r>
       <r>    5.3908    1.0000 </r>
       <r>    5.4408    1.0000 </r>
       <r>    5.4781    1.0000 </r>
       <r>    5.5396    1.0000 </r>
       <r>    5.6136    1.0000 </r>
       <r>    5.6651    1.0000 </r>
       <r>    5.7215    1.0000 </r>
       <r>    5.7477    1.0000 </r>
       <r>    5.8669    1.0000 </r>
       <r>    5.9339    1.0000 </r>
       <r>    5.9595    1.0000 </r>
       <r>    5.9969    1.0001 </r>
       <r>    6.0421    1.0003 </r>
       <r>    6.1352    1.0028 </r>
       <r>    6.1793    1.0063 </r>
       <r>    6.2240    1.0127 </r>
       <r>    6.2775    1.0240 </r>
       <r>    6.3014    1.0294 </r>
       <r>    6.3323    1.0346 </r>
       <r>    6.4232    1.0021 </r>
       <r>    6.4368    0.9856 </r>
       <r>    6.5003    0.8506 </r>
       <r>    6.5404    0.7162 </r>
       <r>    6.5840    0.5401 </r>
       <r>    6.6691    0.2038 </r>
       <r>    6.7308    0.0449 </r>
       <r>    6.8189   -0.0338 </r>
       <r>    6.8443   -0.0353 </r>
       <r>    6.9057   -0.0249 </r>
       <r>    6.9832   -0.0094 </r>
       <r>    7.0872   -0.0013 </r>
       <r>    7.1562   -0.0003 </r>
       <r>    7.3119   -0.0000 </r>
       <r>    7.4365   -0.0000 </r>
       <r>    7.4704   -0.0000 </r>
       <r>    7.5277   -0.0000 </r>
       <r>    7.6191   -0.0000 </r>
       <r>    7.8424   -0.0000 </r>
       <r>    8.0592   -0.0000 </r>
       <r>    8.0922   -0.0000 </r>
       <r>    8.1927   -0.0000 </r>
       <r>    8.3630   -0.0000 </r>
       <r>    8.4390   -0.0000 </r>
       <r>    8.5328   -0.0000 </r>
       <r>    8.6001   -0.0000 </r>
       <r>    8.6492   -0.0000 </r>
       <r>    8.6789   -0.0000 </r>
       <r>    8.7156   -0.0000 </r>
      </set>
     </set>
    </set>
   </array>
  </eigenvalues>
  <separator name="orbital magnetization" >
   <v name="MAGDIPOLOUT">      0.00000000      0.00000000      0.00000000</v>
  </separator>
  <dos>
   <i name="efermi">      6.59346378 </i>
   <total>
    <array>
     <dimension dim="1">gridpoints</dimension>
     <dimension dim="2">spin</dimension>
     <field>energy</field>
     <field>total</field>
     <field>integrated</field>
     <set>
      <set comment="spin 1">
       <r>   -50.4293     0.0000     0.0000 </r>
       <r>   -50.2224     0.0000     0.0000 </r>
       <r>   -50.0155     0.0000     0.0000 </r>
       <r>   -49.8085     0.0000     0.0000 </r>
       <r>   -49.6016     0.0000     0.0000 </r>
       <r>   -49.3947    -0.0000    -0.0000 </r>
       <r>   -49.1878    -0.0000    -0.0000 </r>
       <r>   -48.9809    -0.0000    -0.0000 </r>
       <r>   -48.7740    -0.0000    -0.0000 </r>
       <r>   -48.5671    -0.0000    -0.0000 </r>
       <r>   -48.3601    -0.0000    -0.0000 </r>
       <r>   -48.1532    -0.0046    -0.0010 </r>
       <r>   -47.9463    -0.2654    -0.0559 </r>
       <r>   -47.7394     0.2366    -0.0069 </r>
       <r>   -47.5325    13.4685     2.7799 </r>
       <r>   -47.3256    26.5993     8.2837 </r>
       <r>   -47.1187    18.0556    12.0197 </r>
       <r>   -46.9117     0.2412    12.0696 </r>
       <r>   -46.7048    -0.3307    12.0011 </r>
       <r>   -46.4979    -0.0055    12.0000 </r>
       <r>   -46.2910    -0.0000    12.0000 </r>
       <r>   -46.0841    -0.0000    12.0000 </r>
       <r>   -45.8772    -0.0000    12.0000 </r>
       <r>   -45.6703     0.0000    12.0000 </r>
       <r>   -45.4633     0.0000    12.0000 </r>
       <r>   -45.2564     0.0000    12.0000 </r>
       <r>   -45.0495     0.0000    12.0000 </r>
       <r>   -44.8426     0.0000    12.0000 </r>
       <r>   -44.6357     0.0000    12.0000 </r>
       <r>   -44.4288     0.0000    12.0000 </r>
       <r>   -44.2219     0.0000    12.0000 </r>
       <r>   -44.0149     0.0000    12.0000 </r>
       <r>   -43.8080     0.0000    12.0000 </r>
       <r>   -43.6011     0.0000    12.0000 </r>
       <r>   -43.3942     0.0000    12.0000 </r>
       <r>   -43.1873     0.0000    12.0000 </r>
       <r>   -42.9804     0.0000    12.0000 </r>
       <r>   -42.7735     0.0000    12.0000 </r>
       <r>   -42.5665     0.0000    12.0000 </r>
       <r>   -42.3596     0.0000    12.0000 </r>
       <r>   -42.1527     0.0000    12.0000 </r>
       <r>   -41.9458     0.0000    12.0000 </r>
       <r>   -41.7389     0.0000    12.0000 </r>
       <r>   -41.5320     0.0000    12.0000 </r>
       <r>   -41.3251     0.0000    12.0000 </r>
       <r>   -41.1181     0.0000    12.0000 </r>
       <r>   -40.9112     0.0000    12.0000 </r>
       <r>   -40.7043     0.0000    12.0000 </r>
       <r>   -40.4974     0.0000    12.0000 </r>
       <r>   -40.2905     0.0000    12.0000 </r>
       <r>   -40.0836     0.0000    12.0000 </r>
       <r>   -39.8767     0.0000    12.0000 </r>
       <r>   -39.6697     0.0000    12.0000 </r>
       <r>   -39.4628     0.0000    12.0000 </r>
       <r>   -39.2559     0.0000    12.0000 </r>
       <r>   -39.0490     0.0000    12.0000 </r>
       <r>   -38.8421     0.0000    12.0000 </r>
       <r>   -38.6352     0.0000    12.0000 </r>
       <r>   -38.4283     0.0000    12.0000 </r>
       <r>   -38.2213     0.0000    12.0000 </r>
       <r>   -38.0144     0.0000    12.0000 </r>
       <r>   -37.8075     0.0000    12.0000 </r>
       <r>   -37.6006     0.0000    12.0000 </r>
       <r>   -37.3937     0.0000    12.0000 </r>
       <r>   -37.1868     0.0000    12.0000 </r>
       <r>   -36.9799     0.0000    12.0000 </r>
       <r>   -36.7729     0.0000    12.0000 </r>
       <r>   -36.5660     0.0000    12.0000 </r>
       <r>   -36.3591     0.0000    12.0000 </r>
       <r>   -36.1522     0.0000    12.0000 </r>
       <r>   -35.9453     0.0000    12.0000 </r>
       <r>   -35.7384     0.0000    12.0000 </r>
       <r>   -35.5315     0.0000    12.0000 </r>
       <r>   -35.3245     0.0000    12.0000 </r>
       <r>   -35.1176     0.0000    12.0000 </r>
       <r>   -34.9107     0.0000    12.0000 </r>
       <r>   -34.7038     0.0000    12.0000 </r>
       <r>   -34.4969     0.0000    12.0000 </r>
       <r>   -34.2900     0.0000    12.0000 </r>
       <r>   -34.0830     0.0000    12.0000 </r>
       <r>   -33.8761     0.0000    12.0000 </r>
       <r>   -33.6692     0.0000    12.0000 </r>
       <r>   -33.4623     0.0000    12.0000 </r>
       <r>   -33.2554     0.0000    12.0000 </r>
       <r>   -33.0485     0.0000    12.0000 </r>
       <r>   -32.8416     0.0000    12.0000 </r>
       <r>   -32.6346     0.0000    12.0000 </r>
       <r>   -32.4277     0.0000    12.0000 </r>
       <r>   -32.2208     0.0000    12.0000 </r>
       <r>   -32.0139     0.0000    12.0000 </r>
       <r>   -31.8070     0.0000    12.0000 </r>
       <r>   -31.6001     0.0000    12.0000 </r>
       <r>   -31.3932     0.0000    12.0000 </r>
       <r>   -31.1862     0.0000    12.0000 </r>
       <r>   -30.9793     0.0000    12.0000 </r>
       <r>   -30.7724     0.0000    12.0000 </r>
       <r>   -30.5655     0.0000    12.0000 </r>
       <r>   -30.3586     0.0000    12.0000 </r>
       <r>   -30.1517     0.0000    12.0000 </r>
       <r>   -29.9448     0.0000    12.0000 </r>
       <r>   -29.7378     0.0000    12.0000 </r>
       <r>   -29.5309     0.0000    12.0000 </r>
       <r>   -29.3240     0.0000    12.0000 </r>
       <r>   -29.1171     0.0000    12.0000 </r>
       <r>   -28.9102     0.0000    12.0000 </r>
       <r>   -28.7033     0.0000    12.0000 </r>
       <r>   -28.4964     0.0000    12.0000 </r>
       <r>   -28.2894     0.0000    12.0000 </r>
       <r>   -28.0825     0.0000    12.0000 </r>
       <r>   -27.8756     0.0000    12.0000 </r>
       <r>   -27.6687     0.0000    12.0000 </r>
       <r>   -27.4618     0.0000    12.0000 </r>
       <r>   -27.2549     0.0000    12.0000 </r>
       <r>   -27.0480     0.0000    12.0000 </r>
       <r>   -26.8410     0.0000    12.0000 </r>
       <r>   -26.6341     0.0000    12.0000 </r>
       <r>   -26.4272     0.0000    12.0000 </r>
       <r>   -26.2203     0.0000    12.0000 </r>
       <r>   -26.0134    -0.0000    12.0000 </r>
       <r>   -25.8065    -0.0000    12.0000 </r>
       <r>   -25.5996    -0.0000    12.0000 </r>
       <r>   -25.3926    -0.0000    12.0000 </r>
       <r>   -25.1857    -0.0000    12.0000 </r>
       <r>   -24.9788    -0.0003    11.9999 </r>
       <r>   -24.7719    -0.0302    11.9937 </r>
       <r>   -24.5650    -0.0719    11.9788 </r>
       <r>   -24.3581     1.8038    12.3520 </r>
       <r>   -24.1512     4.1309    13.2068 </r>
       <r>   -23.9442    14.4999    16.2070 </r>
       <r>   -23.7373    31.4413    22.7127 </r>
       <r>   -23.5304    47.7782    32.5987 </r>
       <r>   -23.3235    41.6506    41.2168 </r>
       <r>   -23.1166    20.2323    45.4032 </r>
       <r>   -22.9097    10.5598    47.5881 </r>
       <r>   -22.7028     2.2593    48.0556 </r>
       <r>   -22.4958    -0.2371    48.0066 </r>
       <r>   -22.2889    -0.0314    48.0001 </r>
       <r>   -22.0820    -0.0003    48.0000 </r>
       <r>   -21.8751    -0.0000    48.0000 </r>
       <r>   -21.6682    -0.0000    48.0000 </r>
       <r>   -21.4613    -0.0000    48.0000 </r>
       <r>   -21.2544     0.0000    48.0000 </r>
       <r>   -21.0474     0.0000    48.0000 </r>
       <r>   -20.8405     0.0000    48.0000 </r>
       <r>   -20.6336     0.0000    48.0000 </r>
       <r>   -20.4267     0.0000    48.0000 </r>
       <r>   -20.2198     0.0000    48.0000 </r>
       <r>   -20.0129     0.0000    48.0000 </r>
       <r>   -19.8060     0.0000    48.0000 </r>
       <r>   -19.5990     0.0000    48.0000 </r>
       <r>   -19.3921     0.0000    48.0000 </r>
       <r>   -19.1852     0.0000    48.0000 </r>
       <r>   -18.9783     0.0000    48.0000 </r>
       <r>   -18.7714     0.0000    48.0000 </r>
       <r>   -18.5645     0.0000    48.0000 </r>
       <r>   -18.3576     0.0000    48.0000 </r>
       <r>   -18.1506     0.0000    48.0000 </r>
       <r>   -17.9437     0.0000    48.0000 </r>
       <r>   -17.7368     0.0000    48.0000 </r>
       <r>   -17.5299     0.0000    48.0000 </r>
       <r>   -17.3230     0.0000    48.0000 </r>
       <r>   -17.1161     0.0000    48.0000 </r>
       <r>   -16.9092     0.0000    48.0000 </r>
       <r>   -16.7022     0.0000    48.0000 </r>
       <r>   -16.4953     0.0000    48.0000 </r>
       <r>   -16.2884     0.0000    48.0000 </r>
       <r>   -16.0815     0.0000    48.0000 </r>
       <r>   -15.8746     0.0000    48.0000 </r>
       <r>   -15.6677     0.0000    48.0000 </r>
       <r>   -15.4607     0.0000    48.0000 </r>
       <r>   -15.2538     0.0000    48.0000 </r>
       <r>   -15.0469     0.0000    48.0000 </r>
       <r>   -14.8400     0.0000    48.0000 </r>
       <r>   -14.6331     0.0000    48.0000 </r>
       <r>   -14.4262     0.0000    48.0000 </r>
       <r>   -14.2193     0.0000    48.0000 </r>
       <r>   -14.0123     0.0000    48.0000 </r>
       <r>   -13.8054     0.0000    48.0000 </r>
       <r>   -13.5985     0.0000    48.0000 </r>
       <r>   -13.3916     0.0000    48.0000 </r>
       <r>   -13.1847     0.0000    48.0000 </r>
       <r>   -12.9778     0.0000    48.0000 </r>
       <r>   -12.7709     0.0000    48.0000 </r>
       <r>   -12.5639     0.0000    48.0000 </r>
       <r>   -12.3570     0.0000    48.0000 </r>
       <r>   -12.1501     0.0000    48.0000 </r>
       <r>   -11.9432     0.0000    48.0000 </r>
       <r>   -11.7363     0.0000    48.0000 </r>
       <r>   -11.5294     0.0000    48.0000 </r>
       <r>   -11.3225     0.0000    48.0000 </r>
       <r>   -11.1155     0.0000    48.0000 </r>
       <r>   -10.9086     0.0000    48.0000 </r>
       <r>   -10.7017     0.0000    48.0000 </r>
       <r>   -10.4948     0.0000    48.0000 </r>
       <r>   -10.2879     0.0000    48.0000 </r>
       <r>   -10.0810     0.0000    48.0000 </r>
       <r>    -9.8741     0.0000    48.0000 </r>
       <r>    -9.6671     0.0000    48.0000 </r>
       <r>    -9.4602     0.0000    48.0000 </r>
       <r>    -9.2533     0.0000    48.0000 </r>
       <r>    -9.0464     0.0000    48.0000 </r>
       <r>    -8.8395     0.0000    48.0000 </r>
       <r>    -8.6326     0.0000    48.0000 </r>
       <r>    -8.4257     0.0000    48.0000 </r>
       <r>    -8.2187     0.0000    48.0000 </r>
       <r>    -8.0118     0.0000    48.0000 </r>
       <r>    -7.8049     0.0000    48.0000 </r>
       <r>    -7.5980     0.0000    48.0000 </r>
       <r>    -7.3911     0.0000    48.0000 </r>
       <r>    -7.1842     0.0000    48.0000 </r>
       <r>    -6.9773     0.0000    48.0000 </r>
       <r>    -6.7703     0.0000    48.0000 </r>
       <r>    -6.5634     0.0000    48.0000 </r>
       <r>    -6.3565     0.0000    48.0000 </r>
       <r>    -6.1496     0.0000    48.0000 </r>
       <r>    -5.9427     0.0000    48.0000 </r>
       <r>    -5.7358     0.0000    48.0000 </r>
       <r>    -5.5289     0.0000    48.0000 </r>
       <r>    -5.3219     0.0000    48.0000 </r>
       <r>    -5.1150     0.0000    48.0000 </r>
       <r>    -4.9081     0.0000    48.0000 </r>
       <r>    -4.7012     0.0000    48.0000 </r>
       <r>    -4.4943     0.0000    48.0000 </r>
       <r>    -4.2874     0.0000    48.0000 </r>
       <r>    -4.0805     0.0000    48.0000 </r>
       <r>    -3.8735     0.0000    48.0000 </r>
       <r>    -3.6666     0.0000    48.0000 </r>
       <r>    -3.4597     0.0000    48.0000 </r>
       <r>    -3.2528     0.0000    48.0000 </r>
       <r>    -3.0459     0.0000    48.0000 </r>
       <r>    -2.8390     0.0000    48.0000 </r>
       <r>    -2.6321     0.0000    48.0000 </r>
       <r>    -2.4251     0.0000    48.0000 </r>
       <r>    -2.2182     0.0000    48.0000 </r>
       <r>    -2.0113     0.0000    48.0000 </r>
       <r>    -1.8044    -0.0000    48.0000 </r>
       <r>    -1.5975    -0.0000    48.0000 </r>
       <r>    -1.3906    -0.0000    48.0000 </r>
       <r>    -1.1837    -0.0000    48.0000 </r>
       <r>    -0.9767    -0.0000    48.0000 </r>
       <r>    -0.7698    -0.0000    48.0000 </r>
       <r>    -0.5629    -0.0012    47.9998 </r>
       <r>    -0.3560    -0.0162    47.9964 </r>
       <r>    -0.1491     0.0850    48.0140 </r>
       <r>     0.0578     0.7468    48.1685 </r>
       <r>     0.2647     1.3549    48.4489 </r>
       <r>     0.4717     1.8097    48.8233 </r>
       <r>     0.6786     2.1136    49.2607 </r>
       <r>     0.8855     1.9954    49.6736 </r>
       <r>     1.0924     2.4767    50.1860 </r>
       <r>     1.2993     2.8268    50.7709 </r>
       <r>     1.5062     3.0331    51.3985 </r>
       <r>     1.7132     3.5378    52.1305 </r>
       <r>     1.9201     4.0802    52.9748 </r>
       <r>     2.1270     4.9763    54.0044 </r>
       <r>     2.3339     6.1752    55.2822 </r>
       <r>     2.5408    10.1208    57.3763 </r>
       <r>     2.7477    16.4834    60.7870 </r>
       <r>     2.9546    22.5613    65.4552 </r>
       <r>     3.1616    26.3259    70.9024 </r>
       <r>     3.3685    27.5859    76.6104 </r>
       <r>     3.5754    28.9432    82.5991 </r>
       <r>     3.7823    29.3037    88.6625 </r>
       <r>     3.9892    32.4820    95.3835 </r>
       <r>     4.1961    32.1697   102.0399 </r>
       <r>     4.4030    28.9451   108.0290 </r>
       <r>     4.6100    26.5113   113.5146 </r>
       <r>     4.8169    31.0810   119.9457 </r>
       <r>     5.0238    38.2042   127.8507 </r>
       <r>     5.2307    42.5556   136.6561 </r>
       <r>     5.4376    41.2849   145.1985 </r>
       <r>     5.6445    39.9501   153.4648 </r>
       <r>     5.8514    40.3439   161.8125 </r>
       <r>     6.0584    42.5731   170.6215 </r>
       <r>     6.2653    43.5893   179.6408 </r>
       <r>     6.4722    41.9304   188.3168 </r>
       <r>     6.6791    37.8018   196.1385 </r>
       <r>     6.8860    33.0882   202.9849 </r>
       <r>     7.0929    27.4126   208.6570 </r>
       <r>     7.2998    22.1713   213.2446 </r>
       <r>     7.5068    18.4763   217.0676 </r>
       <r>     7.7137    18.7387   220.9449 </r>
       <r>     7.9206    19.6630   225.0134 </r>
       <r>     8.1275    23.5200   229.8801 </r>
       <r>     8.3344    23.3913   234.7201 </r>
       <r>     8.5413    16.9113   238.2193 </r>
       <r>     8.7482     7.9463   239.8635 </r>
       <r>     8.9552     0.8421   240.0377 </r>
       <r>     9.1621    -0.1699   240.0026 </r>
       <r>     9.3690    -0.0123   240.0000 </r>
       <r>     9.5759    -0.0001   240.0000 </r>
       <r>     9.7828    -0.0000   240.0000 </r>
       <r>     9.9897    -0.0000   240.0000 </r>
       <r>    10.1966    -0.0000   240.0000 </r>
       <r>    10.4036     0.0000   240.0000 </r>
       <r>    10.6105     0.0000   240.0000 </r>
       <r>    10.8174     0.0000   240.0000 </r>
       <r>    11.0243     0.0000   240.0000 </r>
       <r>    11.2312     0.0000   240.0000 </r>
       <r>    11.4381     0.0000   240.0000 </r>
       <r>    11.6450     0.0000   240.0000 </r>
      </set>
     </set>
    </array>
   </total>
  </dos>
 </calculation>
 <structure name="finalpos" >
  <crystal>
   <varray name="basis" >
    <v>      -3.12578172      -3.09201163      -3.10171195 </v>
    <v>       1.59029995       1.67428716      -7.90981110 </v>
    <v>       7.87215074      -7.84542324      -1.49287691 </v>
   </varray>
   <i name="volume">    466.55606850 </i>
   <varray name="rec_basis" >
    <v>      -0.13836562      -0.12837279      -0.05499193 </v>
    <v>       0.04226341       0.06233667      -0.10473310 </v>
    <v>       0.06355160      -0.06356577      -0.00067780 </v>
   </varray>
  </crystal>
  <varray name="positions" >
   <v>       0.96482279       0.93114583       0.39187698 </v>
   <v>       0.62203742       0.25877937       0.38955569 </v>
   <v>       0.50406994       0.01315297       0.00856548 </v>
   <v>       0.00347633       0.01270036       0.00733663 </v>
   <v>       0.09442807       0.20566363       0.79778083 </v>
   <v>       0.02763835       0.07073096       0.59676651 </v>
   <v>       0.90073684       0.79373536       0.20244963 </v>
   <v>       0.80223669       0.58925636       0.39869211 </v>
   <v>       0.74000063       0.46123657       0.19610277 </v>
   <v>       0.65029778       0.34866524      -0.00251697 </v>
   <v>       0.36780210       0.72404623       0.60275728 </v>
   <v>       0.12002266       0.27026057       0.40261423 </v>
   <v>       0.83351325       0.66818071       0.00379333 </v>
   <v>       0.91821593       0.87867305       0.80108838 </v>
   <v>       0.39933491       0.78339858       0.19835422 </v>
   <v>       0.43439384       0.85819958       0.79913599 </v>
   <v>       0.29997496       0.59394953       0.40181746 </v>
   <v>       0.85493827       0.72629339       0.59950002 </v>
   <v>       0.46914472       0.92384547       0.40790471 </v>
   <v>       0.15428868       0.34903721      -0.00605649 </v>
   <v>       0.27543376       0.53782769       0.79209682 </v>
   <v>       0.20160776       0.38800802       0.59638165 </v>
   <v>       0.13142394       0.14741296       0.20705219 </v>
   <v>       0.76473315       0.52533089       0.80212750 </v>
   <v>       0.68335721       0.40893449       0.60743379 </v>
   <v>       0.59417365       0.21268024       0.79553585 </v>
   <v>       0.54284514       0.06880481       0.60442910 </v>
   <v>       0.34214980       0.65247125      -0.00074079 </v>
   <v>       0.23623477       0.46424537       0.19816509 </v>
  </varray>
 </structure>
</modeling>
