Nb - Mo - Ta - Ti - V SQS               
           1
    -3.160000   -3.160000   -3.160000
     1.580000    1.580000   -7.900000
     7.900000   -7.900000   -1.580000
   Nb   Mo   Ta   Ti   V 
   6   6   5   6   6
Direct configuration=     1
   0.96666667  0.93333333  0.40000000
   0.63333333  0.26666667  0.40000000
   0.50000000  0.00000000  0.00000000
   0.00000000  0.00000000  0.00000000
   0.10000000  0.20000000  0.80000000
   0.03333333  0.06666667  0.60000000
   0.90000000  0.80000000  0.20000000
   0.80000000  0.60000000  0.40000000
   0.73333333  0.46666667  0.20000000
   0.66666667  0.33333333  0.00000000
   0.36666667  0.73333333  0.60000000
   0.13333333  0.26666667  0.40000000
   0.83333333  0.66666667  0.00000000
   0.93333333  0.86666667  0.80000000
   0.40000000  0.80000000  0.20000000
   0.43333333  0.86666667  0.80000000
   0.30000000  0.60000000  0.40000000
   0.86666667  0.73333333  0.60000000
   0.46666667  0.93333333  0.40000000
   0.16666667  0.33333333  0.00000000
   0.26666667  0.53333333  0.80000000
   0.20000000  0.40000000  0.60000000
   0.06666667  0.13333333  0.20000000
   0.76666667  0.53333333  0.80000000
   0.70000000  0.40000000  0.60000000
   0.60000000  0.20000000  0.80000000
   0.53333333  0.06666667  0.60000000
   0.33333333  0.66666667  0.00000000
   0.23333333  0.46666667  0.20000000
Nb - Mo - Ta - Ti - V SQS               
           1
    -3.114163   -3.107659   -3.107426
     1.574476    1.587844   -7.819975
     7.805258   -7.794280   -1.548432
   Nb   Mo   Ta   Ti   V 
   6   6   5   6   6
Direct configuration=     2
   0.96520835  0.93365447  0.39860680
   0.63125538  0.26542468  0.39892395
   0.50140203  0.00423502  0.00160565
  -0.00086058  0.00132052  0.00098585
   0.09709310  0.20474452  0.79896823
   0.03321098  0.06946932  0.59750322
   0.90302119  0.79770684  0.20145233
   0.80319416  0.59559186  0.39913854
   0.73417787  0.46751874  0.19827279
   0.66388210  0.33688715 -0.00006739
   0.37050833  0.73027626  0.60129535
   0.13005085  0.27109085  0.40044461
   0.83454141  0.66236409  0.00231043
   0.92812281  0.86919330  0.80001644
   0.40141905  0.79253289  0.19830650
   0.43872252  0.86060277  0.79696072
   0.30041041  0.60082794  0.40104053
   0.86296252  0.73206443  0.59944057
   0.46694731  0.93394690  0.40152838
   0.16485821  0.33588368 -0.00049778
   0.27072602  0.53323425  0.79922362
   0.20225427  0.39623509  0.59909279
   0.06387087  0.13823866  0.20176812
   0.76711699  0.52973297  0.80042511
   0.69584915  0.40379894  0.60204795
   0.59881240  0.20197091  0.79940080
   0.53609124  0.06860076  0.60114236
   0.33554729  0.66264551  0.00052340
   0.23293711  0.46687332  0.20014012
Nb - Mo - Ta - Ti - V SQS               
           1
    -3.118634   -3.112765   -3.112555
     1.575015    1.587079   -7.827782
     7.814501   -7.804594   -1.551512
   Nb   Mo   Ta   Ti   V 
   6   6   5   6   6
Direct configuration=     3
   0.96535303  0.93362301  0.39874450
   0.63146210  0.26554697  0.39903046
   0.50126086  0.00381832  0.00144658
  -0.00077608  0.00119059  0.00088836
   0.09737931  0.20427799  0.79906990
   0.03322237  0.06919381  0.59774970
   0.90272248  0.79793222  0.20130889
   0.80287972  0.59602541  0.39922391
   0.73409414  0.46743501  0.19844335
   0.66415651  0.33653768 -0.00006091
   0.37012867  0.73057676  0.60116746
   0.13037412  0.27065575  0.40040044
   0.83442311  0.66278712  0.00208245
   0.92863810  0.86894493  0.80001482
   0.40128208  0.79326743  0.19847441
   0.43819172  0.86119926  0.79726132
   0.30036915  0.60074643  0.40093762
   0.86333033  0.73218939  0.59949611
   0.46691890  0.93388644  0.40137729
   0.16503642  0.33563291 -0.00044874
   0.27032390  0.53324392  0.79930018
   0.20203271  0.39660541  0.59918266
   0.06414541  0.13775614  0.20159312
   0.76707387  0.53008707  0.80038339
   0.69625843  0.40342526  0.60184544
   0.59892935  0.20177712  0.79945989
   0.53581680  0.06841036  0.60102921
   0.33532955  0.66304094  0.00047193
   0.23297626  0.46685299  0.20012628
Nb - Mo - Ta - Ti - V SQS               
           1
    -3.126534   -3.112793   -3.113543
     1.593202    1.617455   -7.874854
     7.851834   -7.828243   -1.545995
   Nb   Mo   Ta   Ti   V 
   6   6   5   6   6
Direct configuration=     4
   0.96361134  0.93417839  0.39716689
   0.62898609  0.26434965  0.39749508
   0.50252700  0.00778551  0.00329698
  -0.00100898  0.00281028  0.00196148
   0.09502093  0.20822420  0.79806496
   0.03294874  0.07189066  0.59569127
   0.90489143  0.79617547  0.20254251
   0.80549677  0.59239972  0.39881244
   0.73511200  0.46695464  0.19713338
   0.66071912  0.33979948 -0.00003115
   0.37383039  0.72736080  0.60221972
   0.12761147  0.27427970  0.40057929
   0.83592018  0.65964829  0.00369547
   0.92443670  0.87114618  0.79993223
   0.40224171  0.78745757  0.19706430
   0.44153530  0.85624090  0.79495944
   0.30114419  0.60093758  0.40219477
   0.85997686  0.73068442  0.59901959
   0.46732959  0.93454563  0.40241349
   0.16339972  0.33827590 -0.00090316
   0.27460304  0.53297274  0.79848257
   0.20406466  0.39322894  0.59839085
   0.06216532  0.14234704  0.20324643
   0.76769032  0.52634123  0.80056084
   0.69212083  0.40708152  0.60428073
   0.59752939  0.20425315  0.79861041
   0.53874816  0.07021655  0.60227774
   0.33744985  0.65862654  0.00077410
   0.23323120  0.46645400  0.20006737
Nb - Mo - Ta - Ti - V SQS               
           1
    -3.130120   -3.112806   -3.113991
     1.601457    1.631241   -7.896218
     7.868777   -7.838976   -1.543491
   Nb   Mo   Ta   Ti   V 
   6   6   5   6   6
Direct configuration=     5
   0.96282101  0.93442798  0.39645347
   0.62785986  0.26380979  0.39679997
   0.50310995  0.00957280  0.00413519
  -0.00111054  0.00353996  0.00244714
   0.09395760  0.21000101  0.79761148
   0.03282713  0.07310476  0.59476155
   0.90587298  0.79538478  0.20310009
   0.80667636  0.59076697  0.39862576
   0.73557113  0.46673810  0.19654122
   0.65916658  0.34126817 -0.00001734
   0.37550403  0.72591302  0.60269516
   0.12636562  0.27591159  0.40066079
   0.83659514  0.65823516  0.00442394
   0.92253584  0.87213711  0.79989470
   0.40266503  0.78484072  0.19642500
   0.44303983  0.85400759  0.79391783
   0.30149727  0.60102404  0.40276335
   0.85845348  0.73000615  0.59880288
   0.46751806  0.93484280  0.40288227
   0.16266187  0.33946596 -0.00110805
   0.27654152  0.53285087  0.79811382
   0.20497903  0.39170828  0.59803216
   0.06127754  0.14441485  0.20399502
   0.76796343  0.52465429  0.80063989
   0.69025422  0.40872835  0.60538203
   0.59689814  0.20536796  0.79822692
   0.54008156  0.07103061  0.60284348
   0.33840366  0.65663868  0.00090965
   0.23334601  0.46627432  0.20004066
Nb - Mo - Ta - Ti - V SQS               
           1
    -3.132734   -3.111122   -3.114050
     1.604466    1.635831   -7.903518
     7.882275   -7.843636   -1.541586
   Nb   Mo   Ta   Ti   V 
   6   6   5   6   6
Direct configuration=     6
   0.96318124  0.93415650  0.39589036
   0.62680761  0.26427973  0.39596260
   0.50368590  0.00941286  0.00468654
   0.00042496  0.00412621  0.00261032
   0.09449558  0.20882741  0.79748355
   0.03279711  0.07325614  0.59508096
   0.90542920  0.79498646  0.20295844
   0.80640112  0.59137507  0.39883198
   0.73590473  0.46519291  0.19709866
   0.65786190  0.34174819 -0.00019580
   0.37514399  0.72530983  0.60227988
   0.12564018  0.27553960  0.40046914
   0.83657804  0.66027739  0.00390312
   0.92305649  0.87266063  0.79989123
   0.40230585  0.78539027  0.19655745
   0.44061613  0.85491179  0.79473094
   0.30213419  0.60042353  0.40320175
   0.85839398  0.72965175  0.59868196
   0.46739679  0.93452542  0.40272707
   0.16219520  0.34024498 -0.00143387
   0.27739892  0.53278570  0.79777959
   0.20514100  0.39133133  0.59784010
   0.06204539  0.14512497  0.20425854
   0.76839608  0.52377495  0.80062384
   0.68929483  0.40937817  0.60626553
   0.59647767  0.20648095  0.79778505
   0.54145513  0.07091946  0.60334158
   0.33873202  0.65482635  0.00066186
   0.23394211  0.46574814  0.20002764
Nb - Mo - Ta - Ti - V SQS               
           1
    -3.136792   -3.108509   -3.114141
     1.609137    1.642954   -7.914847
     7.903223   -7.850866   -1.538629
   Nb   Mo   Ta   Ti   V 
   6   6   5   6   6
Direct configuration=     7
   0.96373876  0.93373574  0.39501759
   0.62517353  0.26500828  0.39466420
   0.50458059  0.00916486  0.00554141
   0.00280845  0.00503490  0.00286401
   0.09532898  0.20700825  0.79728529
   0.03275134  0.07349074  0.59557608
   0.90473992  0.79436905  0.20273861
   0.80597505  0.59231763  0.39915162
   0.73642210  0.46279768  0.19796267
   0.65583753  0.34249227 -0.00047291
   0.37458388  0.72437488  0.60163590
   0.12451378  0.27496302  0.40017171
   0.83655231  0.66344305  0.00309610
   0.92386487  0.87347213  0.79988616
   0.40174931  0.78624209  0.19676270
   0.43685791  0.85631328  0.79599048
   0.30312285  0.59949264  0.40388149
   0.85830105  0.72910241  0.59849444
   0.46720799  0.93403349  0.40248640
   0.16147113  0.34145254 -0.00193901
   0.27872854  0.53268472  0.79726186
   0.20539156  0.39074706  0.59754239
   0.06323808  0.14622566  0.20466745
   0.76906656  0.52241191  0.80059901
   0.68780864  0.41038534  0.60763474
   0.59582533  0.20820622  0.79710009
   0.54358742  0.07074712  0.60411426
   0.33923930  0.65201715  0.00027763
   0.23486655  0.46493254  0.20000763
Nb - Mo - Ta - Ti - V SQS               
           1
    -3.126434   -3.093874   -3.101860
     1.603192    1.642617   -7.890382
     7.884974   -7.827303   -1.527089
   Nb   Mo   Ta   Ti   V 
   6   6   5   6   6
Direct configuration=     8
   0.96416144  0.93326142  0.39439095
   0.62418230  0.26504918  0.39410045
   0.50530960  0.00935735  0.00631788
   0.00458431  0.00569098  0.00307158
   0.09607536  0.20563262  0.79729082
   0.03291397  0.07324308  0.59576003
   0.90439980  0.79372818  0.20242895
   0.80574478  0.59282000  0.39923792
   0.73630247  0.46258337  0.19790863
   0.65450615  0.34326333 -0.00085461
   0.37373560  0.72418432  0.60165853
   0.12352847  0.27448778  0.40024159
   0.83602217  0.66511467  0.00286695
   0.92318755  0.87424338  0.79963825
   0.40161060  0.78601227  0.19717521
   0.43575630  0.85694151  0.79684347
   0.30345613  0.59904695  0.40376885
   0.85814030  0.72875336  0.59846642
   0.46711757  0.93350061  0.40235668
   0.16035667  0.34272403 -0.00256894
   0.27948990  0.53282790  0.79661876
   0.20528851  0.39027244  0.59743858
   0.06517262  0.14703436  0.20499490
   0.76937435  0.52168413  0.80073704
   0.68683776  0.41108501  0.60865005
   0.59555409  0.20939531  0.79659793
   0.54500299  0.07061422  0.60464789
   0.34017034  0.64998604  0.00006913
   0.23535122  0.46412888  0.20014611
Nb - Mo - Ta - Ti - V SQS               
           1
    -3.127283   -3.095073   -3.102866
     1.603679    1.642645   -7.892387
     7.886469   -7.829234   -1.528035
   Nb   Mo   Ta   Ti   V 
   6   6   5   6   6
Direct configuration=     9
   0.96412675  0.93330042  0.39444243
   0.62426388  0.26504584  0.39414678
   0.50524956  0.00934151  0.00625407
   0.00443820  0.00563708  0.00305447
   0.09601402  0.20574564  0.79729039
   0.03290058  0.07326342  0.59574492
   0.90442783  0.79378085  0.20245441
   0.80576369  0.59277872  0.39923082
   0.73631232  0.46260098  0.19791308
   0.65461566  0.34319999 -0.00082325
   0.37380537  0.72419997  0.60165669
   0.12360953  0.27452681  0.40023589
   0.83606573  0.66497734  0.00288573
   0.92324325  0.87418002  0.79965860
   0.40162198  0.78603113  0.19714133
   0.43584680  0.85688985  0.79677341
   0.30342875  0.59908357  0.40377810
   0.85815354  0.72878203  0.59846873
   0.46712504  0.93354440  0.40236735
   0.16044835  0.34261959 -0.00251721
   0.27942734  0.53281617  0.79667157
   0.20529701  0.39031144  0.59744712
   0.06501345  0.14696792  0.20496794
   0.76934905  0.52174392  0.80072572
   0.68691749  0.41102748  0.60856665
   0.59557640  0.20929763  0.79663915
   0.54488652  0.07062512  0.60460403
   0.34009386  0.65015292  0.00008629
   0.23531137  0.46419490  0.20013475
Nb - Mo - Ta - Ti - V SQS               
           1
    -3.127162   -3.092612   -3.102056
     1.601315    1.648046   -7.894696
     7.890210   -7.833798   -1.520951
   Nb   Mo   Ta   Ti   V 
   6   6   5   6   6
Direct configuration=    10
   0.96422390  0.93293721  0.39396539
   0.62370703  0.26451045  0.39397704
   0.50577098  0.01010318  0.00711508
   0.00559877  0.00616826  0.00327955
   0.09673751  0.20485218  0.79741149
   0.03317103  0.07273006  0.59572187
   0.90423725  0.79337241  0.20210304
   0.80561193  0.59289067  0.39922752
   0.73597149  0.46343739  0.19737499
   0.65373360  0.34378116 -0.00117302
   0.37287317  0.72452948  0.60206881
   0.12298022  0.27408077  0.40048957
   0.83534477  0.66545247  0.00296414
   0.92173143  0.87486217  0.79923866
   0.40157442  0.78538155  0.19761965
   0.43641425  0.85696175  0.79733765
   0.30332904  0.59886526  0.40331137
   0.85794154  0.72858280  0.59852374
   0.46720064  0.93311533  0.40231743
   0.15921460  0.34379997 -0.00312593
   0.27964766  0.53310888  0.79594869
   0.20500758  0.38992993  0.59748548
   0.06758429  0.14758129  0.20517101
   0.76943978  0.52158314  0.80091138
   0.68635657  0.41137722  0.60923806
   0.59557964  0.21000004  0.79625569
   0.54562415  0.07052037  0.60492398
   0.34114403  0.64890074  0.00002251
   0.23558207  0.46325056  0.20029517
Nb - Mo - Ta - Ti - V SQS               
           1
    -3.126957   -3.088444   -3.100683
     1.597312    1.657194   -7.898608
     7.896547   -7.841528   -1.508955
   Nb   Mo   Ta   Ti   V 
   6   6   5   6   6
Direct configuration=    11
   0.96438808  0.93232168  0.39315763
   0.62276329  0.26360399  0.39368914
   0.50665515  0.01139370  0.00857326
   0.00756536  0.00706760  0.00366127
   0.09796295  0.20333986  0.79761591
   0.03362899  0.07182715  0.59568249
   0.90391403  0.79268054  0.20150789
   0.80535486  0.59308017  0.39922200
   0.73539411  0.46485246  0.19646479
   0.65223924  0.34476452 -0.00176482
   0.37129417  0.72508798  0.60276643
   0.12191399  0.27332618  0.40091844
   0.83412354  0.66625695  0.00309707
   0.91917013  0.87601646  0.79852801
   0.40149385  0.78428268  0.19842873
   0.43737596  0.85708420  0.79829293
   0.30315978  0.59849505  0.40252112
   0.85758233  0.72824565  0.59861662
   0.46732851  0.93238893  0.40223260
   0.15712451  0.34579731 -0.00415565
   0.28002067  0.53360329  0.79472540
   0.20451708  0.38928422  0.59755000
   0.07194021  0.14861955  0.20551592
   0.76959352  0.52131124  0.80122552
   0.68540675  0.41197032  0.61037470
   0.59558521  0.21118846  0.79560721
   0.54687398  0.07034344  0.60546564
   0.34292268  0.64678088 -0.00008624
   0.23604039  0.46165222  0.20056600
Nb - Mo - Ta - Ti - V SQS               
           1
    -3.130920   -3.091710   -3.104912
     1.597050    1.662156   -7.910273
     7.902535   -7.850182   -1.506600
   Nb   Mo   Ta   Ti   V 
   6   6   5   6   6
Direct configuration=    12
   0.96426280  0.93213637  0.39291402
   0.62279851  0.26339973  0.39355616
   0.50677095  0.01232284  0.00938362
   0.00765547  0.00713523  0.00373910
   0.09828082  0.20337061  0.79769503
   0.03377070  0.07150127  0.59561943
   0.90392230  0.79287629  0.20138419
   0.80517688  0.59246250  0.39916724
   0.73589207  0.46439475  0.19665060
   0.65212200  0.34491847 -0.00190258
   0.37114078  0.72531187  0.60283061
   0.12157042  0.27326014  0.40119411
   0.83411385  0.66619892  0.00299632
   0.91970264  0.87640198  0.79864001
   0.40116868  0.78440371  0.19820148
   0.43684370  0.85678617  0.79839105
   0.30261624  0.59788706  0.40272612
   0.85724838  0.72822085  0.59860870
   0.46733392  0.93204078  0.40248124
   0.15634370  0.34627583 -0.00444517
   0.27936079  0.53410876  0.79417999
   0.20417779  0.38924308  0.59749937
   0.07488699  0.14905658  0.20540988
   0.76934187  0.52195678  0.80135946
   0.68524002  0.41180005  0.61023703
   0.59585174  0.21115820  0.79547873
   0.54661865  0.07013027  0.60555032
   0.34308100  0.64692873 -0.00000337
   0.23603967  0.46097882  0.20045732
Nb - Mo - Ta - Ti - V SQS               
           1
    -3.132914   -3.093353   -3.107041
     1.596918    1.664653   -7.916142
     7.905549   -7.854537   -1.505415
   Nb   Mo   Ta   Ti   V 
   6   6   5   6   6
Direct configuration=    13
   0.96419986  0.93204321  0.39279153
   0.62281623  0.26329707  0.39348928
   0.50682907  0.01278985  0.00979114
   0.00770074  0.00716923  0.00377823
   0.09844056  0.20338606  0.79773482
   0.03384193  0.07133753  0.59558768
   0.90392646  0.79297461  0.20132203
   0.80508745  0.59215218  0.39913960
   0.73614231  0.46416483  0.19674394
   0.65206308  0.34499578 -0.00197181
   0.37106369  0.72542437  0.60286291
   0.12139774  0.27322705  0.40133267
   0.83410899  0.66616974  0.00294566
   0.91997024  0.87659568  0.79869639
   0.40100528  0.78446447  0.19808725
   0.43657621  0.85663648  0.79844032
   0.30234309  0.59758169  0.40282905
   0.85708055  0.72820841  0.59860471
   0.46733662  0.93186595  0.40260617
   0.15595131  0.34651618 -0.00459064
   0.27902920  0.53436258  0.79390589
   0.20400728  0.38922241  0.59747390
   0.07636790  0.14927601  0.20535670
   0.76921539  0.52228113  0.80142689
   0.68515624  0.41171448  0.61016779
   0.59598570  0.21114296  0.79541415
   0.54649034  0.07002321  0.60559285
   0.34316056  0.64700303  0.00003831
   0.23603932  0.46064049  0.20040257
Nb - Mo - Ta - Ti - V SQS               
           1
    -3.132048   -3.092197   -3.106361
     1.595246    1.665669   -7.914801
     7.900455   -7.850986   -1.502764
   Nb   Mo   Ta   Ti   V 
   6   6   5   6   6
Direct configuration=    14
   0.96415955  0.93193572  0.39266483
   0.62284157  0.26318886  0.39341790
   0.50683733  0.01328092  0.01020007
   0.00775295  0.00720282  0.00381922
   0.09856707  0.20345174  0.79775477
   0.03384619  0.07119578  0.59557738
   0.90392610  0.79305536  0.20127188
   0.80494776  0.59179635  0.39909979
   0.73644059  0.46386328  0.19685599
   0.65205862  0.34509295 -0.00203466
   0.37102624  0.72547554  0.60283279
   0.12125173  0.27319680  0.40148175
   0.83410780  0.66619256  0.00292185
   0.92023593  0.87676828  0.79881624
   0.40084293  0.78449403  0.19796392
   0.43638855  0.85648190  0.79849928
   0.30205394  0.59730227  0.40291713
   0.85688818  0.72820694  0.59860099
   0.46732430  0.93162704  0.40276991
   0.15556470  0.34674483 -0.00473066
   0.27863094  0.53466368  0.79364594
   0.20382546  0.38920944  0.59743912
   0.07812649  0.14946929  0.20529280
   0.76899194  0.52266157  0.80149260
   0.68508043  0.41158222  0.61003420
   0.59615589  0.21109920  0.79536179
   0.54628834  0.06990061  0.60562896
   0.34315921  0.64719422  0.00007259
   0.23601260  0.46033246  0.20033161
Nb - Mo - Ta - Ti - V SQS               
           1
    -3.129452   -3.088728   -3.104323
     1.590232    1.668716   -7.910778
     7.885174   -7.840333   -1.494810
   Nb   Mo   Ta   Ti   V 
   6   6   5   6   6
Direct configuration=    15
   0.96403862  0.93161310  0.39228447
   0.62291768  0.26286411  0.39320357
   0.50686194  0.01475471  0.01142781
   0.00790961  0.00730363  0.00394227
   0.09894671  0.20364880  0.79781471
   0.03385899  0.07077045  0.59554641
   0.90392505  0.79329763  0.20112138
   0.80452860  0.59072866  0.39898008
   0.73733568  0.46295856  0.19719218
   0.65204525  0.34538444 -0.00222325
   0.37091384  0.72562907  0.60274240
   0.12081354  0.27310621  0.40192924
   0.83410425  0.66626100  0.00285038
   0.92103319  0.87728623  0.79917610
   0.40035577  0.78458263  0.19759373
   0.43582540  0.85601815  0.79867617
   0.30118622  0.59646401  0.40318136
   0.85631089  0.72820258  0.59858981
   0.46728731  0.93091033  0.40326128
   0.15440453  0.34743081 -0.00515087
   0.27743584  0.53556693  0.79286580
   0.20327982  0.38917052  0.59733469
   0.08340388  0.15004897  0.20510120
   0.76832136  0.52380314  0.80169001
   0.68485297  0.41118529  0.60963313
   0.59666663  0.21096783  0.79520461
   0.54568214  0.06953278  0.60573728
   0.34315516  0.64776792  0.00017559
   0.23593244  0.45940818  0.20011846
Nb - Mo - Ta - Ti - V SQS               
           1
    -3.128860   -3.087957   -3.103346
     1.589723    1.668992   -7.908769
     7.881871   -7.837225   -1.493658
   Nb   Mo   Ta   Ti   V 
   6   6   5   6   6
Direct configuration=    16
   0.96405209  0.93161419  0.39226714
   0.62285106  0.26269500  0.39315289
   0.50674337  0.01484192  0.01145894
   0.00807386  0.00741756  0.00399699
   0.09892130  0.20369418  0.79775717
   0.03363052  0.07078857  0.59564387
   0.90378780  0.79320190  0.20110993
   0.80433384  0.59075531  0.39900085
   0.73735005  0.46289023  0.19711009
   0.65203882  0.34546021 -0.00220180
   0.37081400  0.72550803  0.60259819
   0.12095871  0.27294387  0.40196502
   0.83408016  0.66643549  0.00294509
   0.92062196  0.87726589  0.79924624
   0.40042905  0.78440554  0.19771224
   0.43625500  0.85617149  0.79881014
   0.30116706  0.59655180  0.40303558
   0.85630788  0.72818218  0.59860433
   0.46729578  0.93071447  0.40331708
   0.15439011  0.34750879 -0.00520244
   0.27728036  0.53568654  0.79288794
   0.20322672  0.38913402  0.59736138
   0.08448171  0.14997081  0.20510374
   0.76812748  0.52387998  0.80166394
   0.68486844  0.41106228  0.60952888
   0.59669666  0.21101535  0.79521576
   0.54557068  0.06949560  0.60570766
   0.34300315  0.64797394  0.00011922
   0.23597571  0.45940153  0.20008392
Nb - Mo - Ta - Ti - V SQS               
           1
    -3.127086   -3.085643   -3.100416
     1.588197    1.669821   -7.902740
     7.871960   -7.827898   -1.490200
   Nb   Mo   Ta   Ti   V 
   6   6   5   6   6
Direct configuration=    17
   0.96409251  0.93161746  0.39221515
   0.62265112  0.26218757  0.39300077
   0.50638761  0.01510362  0.01155237
   0.00856675  0.00775946  0.00416123
   0.09884505  0.20383032  0.79758451
   0.03294495  0.07084293  0.59593636
   0.90337592  0.79291464  0.20107557
   0.80374942  0.59083527  0.39906318
   0.73739316  0.46268516  0.19686373
   0.65201953  0.34568756 -0.00213740
   0.37051440  0.72514479  0.60216535
   0.12139428  0.27245679  0.40207239
   0.83400792  0.66695908  0.00322939
   0.91938796  0.87720483  0.79945675
   0.40064889  0.78387419  0.19806790
   0.43754416  0.85663169  0.79921223
   0.30110959  0.59681518  0.40259806
   0.85629881  0.72812097  0.59864792
   0.46732114  0.93012676  0.40348453
   0.15434684  0.34774277 -0.00535721
   0.27681382  0.53604543  0.79295438
   0.20306738  0.38902449  0.59744146
   0.08771595  0.14973638  0.20511142
   0.76754573  0.52411052  0.80158569
   0.68491483  0.41069316  0.60921597
   0.59678678  0.21115794  0.79524921
   0.54523622  0.06938400  0.60561876
   0.34254708  0.64859213 -0.00004993
   0.23610553  0.45938158  0.19998026
Nb - Mo - Ta - Ti - V SQS               
           1
    -3.128671   -3.087035   -3.101398
     1.588567    1.670998   -7.905227
     7.873828   -7.830011   -1.489943
   Nb   Mo   Ta   Ti   V 
   6   6   5   6   6
Direct configuration=    18
   0.96406946  0.93165307  0.39219702
   0.62260240  0.26199744  0.39291679
   0.50629883  0.01515590  0.01156644
   0.00868520  0.00791191  0.00423238
   0.09877964  0.20389988  0.79754097
   0.03269153  0.07085090  0.59603646
   0.90321003  0.79283456  0.20109484
   0.80361075  0.59087068  0.39908230
   0.73741452  0.46258696  0.19678160
   0.65200375  0.34576823 -0.00211733
   0.37039788  0.72503468  0.60206388
   0.12152018  0.27226523  0.40209716
   0.83397189  0.66711308  0.00332792
   0.91920461  0.87719022  0.79952439
   0.40068493  0.78374110  0.19816991
   0.43766855  0.85681085  0.79931855
   0.30108711  0.59680336  0.40246320
   0.85629830  0.72807237  0.59867018
   0.46733065  0.92991691  0.40354634
   0.15438088  0.34781693 -0.00540927
   0.27669516  0.53616710  0.79299721
   0.20302874  0.38901863  0.59744802
   0.08895303  0.14959312  0.20513455
   0.76735763  0.52416704  0.80154398
   0.68492476  0.41056873  0.60910253
   0.59675681  0.21124435  0.79527892
   0.54513556  0.06934852  0.60557309
   0.34239853  0.64883579 -0.00011577
   0.23617203  0.45942913  0.19993375
Nb - Mo - Ta - Ti - V SQS               
           1
    -3.133427   -3.091211   -3.104345
     1.589676    1.674529   -7.912687
     7.879432   -7.836350   -1.489171
   Nb   Mo   Ta   Ti   V 
   6   6   5   6   6
Direct configuration=    19
   0.96400034  0.93175987  0.39214267
   0.62245628  0.26142725  0.39266486
   0.50603262  0.01531267  0.01160865
   0.00904043  0.00836912  0.00444579
   0.09858349  0.20410847  0.79741037
   0.03193161  0.07087480  0.59633669
   0.90271257  0.79259437  0.20115263
   0.80319494  0.59097686  0.39913963
   0.73747858  0.46229244  0.19653526
   0.65195643  0.34601015 -0.00205713
   0.37004846  0.72470440  0.60175952
   0.12189765  0.27169079  0.40217141
   0.83386388  0.66757495  0.00362345
   0.91865480  0.87714640  0.79972724
   0.40079297  0.78334199  0.19847584
   0.43804158  0.85734819  0.79963745
   0.30101971  0.59676787  0.40205871
   0.85629675  0.72792663  0.59873695
   0.46735913  0.92928759  0.40373169
   0.15448298  0.34803932 -0.00556539
   0.27633938  0.53653196  0.79312569
   0.20291287  0.38900106  0.59746770
   0.09266255  0.14916370  0.20520395
   0.76679361  0.52433649  0.80141888
   0.68495450  0.41019556  0.60876225
   0.59666694  0.21150349  0.79536802
   0.54483370  0.06924208  0.60543612
   0.34195311  0.64956646 -0.00031320
   0.23637146  0.45957174  0.19979428
Nb - Mo - Ta - Ti - V SQS               
           1
    -3.134435   -3.091927   -3.104405
     1.589074    1.675308   -7.912107
     7.878268   -7.835812   -1.487809
   Nb   Mo   Ta   Ti   V 
   6   6   5   6   6
Direct configuration=    20
   0.96396537  0.93177839  0.39210315
   0.62242333  0.26117324  0.39249292
   0.50601144  0.01532334  0.01162459
   0.00907451  0.00862944  0.00456998
   0.09839229  0.20426273  0.79738886
   0.03156256  0.07084708  0.59645318
   0.90251073  0.79249559  0.20125493
   0.80315257  0.59091008  0.39911335
   0.73757399  0.46209843  0.19646013
   0.65192226  0.34620635 -0.00207751
   0.36987540  0.72458452  0.60174720
   0.12190094  0.27145197  0.40220707
   0.83374421  0.66776657  0.00372738
   0.91891938  0.87719332  0.79984472
   0.40076735  0.78320865  0.19852131
   0.43754905  0.85761011  0.79965309
   0.30095320  0.59648922  0.40196871
   0.85620173  0.72782342  0.59877605
   0.46734570  0.92892629  0.40389296
   0.15454627  0.34817185 -0.00564930
   0.27623715  0.53676489  0.79316458
   0.20287129  0.38902549  0.59738821
   0.09491146  0.14889194  0.20530625
   0.76651590  0.52441316  0.80137767
   0.68489818  0.41006099  0.60857689
   0.59653325  0.21168295  0.79543565
   0.54470441  0.06917753  0.60536511
   0.34181792  0.64995115 -0.00038979
   0.23645152  0.45974800  0.19970265
Nb - Mo - Ta - Ti - V SQS               
           1
    -3.137459   -3.094075   -3.104586
     1.587267    1.677648   -7.910364
     7.874773   -7.834196   -1.483725
   Nb   Mo   Ta   Ti   V 
   6   6   5   6   6
Direct configuration=    21
   0.96386049  0.93183393  0.39198460
   0.62232449  0.26041108  0.39197699
   0.50594792  0.01535533  0.01167242
   0.00917675  0.00941048  0.00494267
   0.09781887  0.20472548  0.79732437
   0.03045564  0.07076388  0.59680267
   0.90190533  0.79219922  0.20156180
   0.80302549  0.59070969  0.39903447
   0.73786011  0.46151636  0.19623465
   0.65181978  0.34679496 -0.00213861
   0.36935631  0.72422483  0.60171017
   0.12191078  0.27073548  0.40231401
   0.83338531  0.66834146  0.00403926
   0.91971294  0.87733421  0.80019725
   0.40069049  0.78280864  0.19865768
   0.43607182  0.85839578  0.79970007
   0.30075367  0.59565320  0.40169858
   0.85591669  0.72751377  0.59889333
   0.46730535  0.92784244  0.40437672
   0.15473611  0.34856945 -0.00590102
   0.27593055  0.53746371  0.79328131
   0.20274656  0.38909871  0.59714972
   0.10165656  0.14807723  0.20561323
   0.76568297  0.52464312  0.80125402
   0.68472924  0.40965716  0.60802070
   0.59613232  0.21222134  0.79563861
   0.54431662  0.06898378  0.60515203
   0.34141249  0.65110518 -0.00061949
   0.23669167  0.46027675  0.19942778
Nb - Mo - Ta - Ti - V SQS               
           1
    -3.143507   -3.098372   -3.104947
     1.583653    1.682327   -7.906880
     7.867785   -7.830963   -1.475557
   Nb   Mo   Ta   Ti   V 
   6   6   5   6   6
Direct configuration=    22
   0.96365089  0.93194485  0.39174744
   0.62212678  0.25888606  0.39094437
   0.50582097  0.01541934  0.01176812
   0.00938128  0.01097314  0.00568873
   0.09667296  0.20565075  0.79719551
   0.02824331  0.07059727  0.59750171
   0.90069527  0.79160643  0.20217554
   0.80277145  0.59030874  0.39887654
   0.73843181  0.46035200  0.19578328
   0.65161515  0.34797221 -0.00226054
   0.36831878  0.72350509  0.60163584
   0.12193023  0.26930246  0.40252756
   0.83266815  0.66949151  0.00466348
   0.92129896  0.87761675  0.80090269
   0.40053676  0.78200861  0.19893030
   0.43311966  0.85996663  0.79979432
   0.30035467  0.59398060  0.40115768
   0.85534692  0.72689438  0.59912776
   0.46722434  0.92567494  0.40534399
   0.15511569  0.34936458 -0.00640440
   0.27531798  0.53886148  0.79351519
   0.20249732  0.38924489  0.59667260
   0.11513702  0.14645118  0.20622771
   0.76401837  0.52510255  0.80100668
   0.68439153  0.40884882  0.60690772
   0.59533115  0.21329825  0.79604491
   0.54354155  0.06859585  0.60472559
   0.34060256  0.65341309 -0.00107848
   0.23717183  0.46133424  0.19887816
Nb - Mo - Ta - Ti - V SQS               
           1
    -3.140129   -3.095972   -3.104745
     1.585671    1.679713   -7.908826
     7.871688   -7.832769   -1.480119
   Nb   Mo   Ta   Ti   V 
   6   6   5   6   6
Direct configuration=    23
   0.96376776  0.93188307  0.39187997
   0.62223725  0.25973862  0.39152197
   0.50589177  0.01538356  0.01171462
   0.00926699  0.01009970  0.00527128