  29  29   0   0
  0.1679057E+02  0.5525242E-09  0.8287863E-09  0.1139058E-08  0.5000000E-15
  1.000000000000000E-004
  CAR 
 SQS with 1 vacancy for VFE and VRV      
     12.06504525    -50.25950863  301      6.72392522      1.00000000
    -50.260  0.0000E+00  0.0000E+00
    -50.052  0.0000E+00  0.0000E+00
    -49.844  0.0000E+00  0.0000E+00
    -49.636  0.0000E+00  0.0000E+00
    -49.429  0.0000E+00  0.0000E+00
    -49.221 -0.2437E-35 -0.5064E-36
    -49.013 -0.1199E-27 -0.2491E-28
    -48.805 -0.5396E-21 -0.1121E-21
    -48.598 -0.2690E-15 -0.5589E-16
    -48.390 -0.1519E-10 -0.3155E-11
    -48.182 -0.9513E-07 -0.1977E-07
    -47.974 -0.6403E-04 -0.1332E-04
    -47.767 -0.4258E-02 -0.8979E-03
    -47.559 -0.6106E-02 -0.2166E-02
    -47.351  0.2786E+00  0.5571E-01
    -47.143  0.5586E+00  0.1718E+00
    -46.936  0.3022E+00  0.2345E+00
    -46.728  0.3437E-01  0.2417E+00
    -46.520 -0.7778E-02  0.2401E+00
    -46.312 -0.2973E-03  0.2400E+00
    -46.105 -0.9331E-06  0.2400E+00
    -45.897 -0.3031E-09  0.2400E+00
    -45.689 -0.1072E-13  0.2400E+00
    -45.481  0.0000E+00  0.2400E+00
    -45.274  0.0000E+00  0.2400E+00
    -45.066  0.0000E+00  0.2400E+00
    -44.858  0.0000E+00  0.2400E+00
    -44.650  0.0000E+00  0.2400E+00
    -44.443  0.0000E+00  0.2400E+00
    -44.235  0.0000E+00  0.2400E+00
    -44.027  0.0000E+00  0.2400E+00
    -43.819  0.0000E+00  0.2400E+00
    -43.612  0.0000E+00  0.2400E+00
    -43.404  0.0000E+00  0.2400E+00
    -43.196  0.0000E+00  0.2400E+00
    -42.988  0.0000E+00  0.2400E+00
    -42.781  0.0000E+00  0.2400E+00
    -42.573  0.0000E+00  0.2400E+00
    -42.365  0.0000E+00  0.2400E+00
    -42.157  0.0000E+00  0.2400E+00
    -41.950  0.0000E+00  0.2400E+00
    -41.742  0.0000E+00  0.2400E+00
    -41.534  0.0000E+00  0.2400E+00
    -41.326  0.0000E+00  0.2400E+00
    -41.119  0.0000E+00  0.2400E+00
    -40.911  0.0000E+00  0.2400E+00
    -40.703  0.0000E+00  0.2400E+00
    -40.495  0.0000E+00  0.2400E+00
    -40.288  0.0000E+00  0.2400E+00
    -40.080  0.0000E+00  0.2400E+00
    -39.872  0.0000E+00  0.2400E+00
    -39.664  0.0000E+00  0.2400E+00
    -39.457  0.0000E+00  0.2400E+00
    -39.249  0.0000E+00  0.2400E+00
    -39.041  0.0000E+00  0.2400E+00
    -38.833  0.0000E+00  0.2400E+00
    -38.626  0.0000E+00  0.2400E+00
    -38.418  0.0000E+00  0.2400E+00
    -38.210  0.0000E+00  0.2400E+00
    -38.002  0.0000E+00  0.2400E+00
    -37.795  0.0000E+00  0.2400E+00
    -37.587  0.0000E+00  0.2400E+00
    -37.379  0.0000E+00  0.2400E+00
    -37.171  0.0000E+00  0.2400E+00
    -36.964  0.0000E+00  0.2400E+00
    -36.756  0.0000E+00  0.2400E+00
    -36.548  0.0000E+00  0.2400E+00
    -36.340  0.0000E+00  0.2400E+00
    -36.133  0.0000E+00  0.2400E+00
    -35.925  0.0000E+00  0.2400E+00
    -35.717  0.0000E+00  0.2400E+00
    -35.509  0.0000E+00  0.2400E+00
    -35.302  0.0000E+00  0.2400E+00
    -35.094  0.0000E+00  0.2400E+00
    -34.886  0.0000E+00  0.2400E+00
    -34.678  0.0000E+00  0.2400E+00
    -34.471  0.0000E+00  0.2400E+00
    -34.263  0.0000E+00  0.2400E+00
    -34.055  0.0000E+00  0.2400E+00
    -33.847  0.0000E+00  0.2400E+00
    -33.640  0.0000E+00  0.2400E+00
    -33.432  0.0000E+00  0.2400E+00
    -33.224  0.0000E+00  0.2400E+00
    -33.016  0.0000E+00  0.2400E+00
    -32.809  0.0000E+00  0.2400E+00
    -32.601  0.0000E+00  0.2400E+00
    -32.393  0.0000E+00  0.2400E+00
    -32.185  0.0000E+00  0.2400E+00
    -31.978  0.0000E+00  0.2400E+00
    -31.770  0.0000E+00  0.2400E+00
    -31.562  0.0000E+00  0.2400E+00
    -31.354  0.0000E+00  0.2400E+00
    -31.147  0.0000E+00  0.2400E+00
    -30.939  0.0000E+00  0.2400E+00
    -30.731  0.0000E+00  0.2400E+00
    -30.523  0.0000E+00  0.2400E+00
    -30.316  0.0000E+00  0.2400E+00
    -30.108  0.0000E+00  0.2400E+00
    -29.900  0.0000E+00  0.2400E+00
    -29.692  0.0000E+00  0.2400E+00
    -29.485  0.0000E+00  0.2400E+00
    -29.277  0.0000E+00  0.2400E+00
    -29.069  0.0000E+00  0.2400E+00
    -28.861  0.0000E+00  0.2400E+00
    -28.654  0.0000E+00  0.2400E+00
    -28.446  0.0000E+00  0.2400E+00
    -28.238  0.0000E+00  0.2400E+00
    -28.030  0.0000E+00  0.2400E+00
    -27.823  0.0000E+00  0.2400E+00
    -27.615  0.0000E+00  0.2400E+00
    -27.407  0.0000E+00  0.2400E+00
    -27.199  0.0000E+00  0.2400E+00
    -26.992  0.0000E+00  0.2400E+00
    -26.784  0.0000E+00  0.2400E+00
    -26.576  0.0000E+00  0.2400E+00
    -26.368  0.0000E+00  0.2400E+00
    -26.161  0.0000E+00  0.2400E+00
    -25.953  0.0000E+00  0.2400E+00
    -25.745 -0.9158E-31  0.2400E+00
    -25.537 -0.8580E-24  0.2400E+00
    -25.330 -0.9110E-18  0.2400E+00
    -25.122 -0.1051E-12  0.2400E+00
    -24.914 -0.1381E-08  0.2400E+00
    -24.706 -0.1986E-05  0.2400E+00
    -24.499 -0.3034E-03  0.2399E+00
    -24.291 -0.4115E-02  0.2391E+00
    -24.083  0.2107E-01  0.2435E+00
    -23.875  0.1891E+00  0.2827E+00
    -23.668  0.4179E+00  0.3696E+00
    -23.460  0.8228E+00  0.5405E+00
    -23.252  0.1029E+01  0.7542E+00
    -23.044  0.6574E+00  0.8908E+00
    -22.837  0.2702E+00  0.9469E+00
    -22.629  0.6321E-01  0.9601E+00
    -22.421  0.1322E-02  0.9603E+00
    -22.213 -0.1532E-02  0.9600E+00
    -22.006 -0.4329E-04  0.9600E+00
    -21.798 -0.1130E-06  0.9600E+00
    -21.590 -0.3092E-10  0.9600E+00
    -21.382 -0.9235E-15  0.9600E+00
    -21.175  0.0000E+00  0.9600E+00
    -20.967  0.0000E+00  0.9600E+00
    -20.759  0.0000E+00  0.9600E+00
    -20.551  0.0000E+00  0.9600E+00
    -20.344  0.0000E+00  0.9600E+00
    -20.136  0.0000E+00  0.9600E+00
    -19.928  0.0000E+00  0.9600E+00
    -19.720  0.0000E+00  0.9600E+00
    -19.513  0.0000E+00  0.9600E+00
    -19.305  0.0000E+00  0.9600E+00
    -19.097  0.0000E+00  0.9600E+00
    -18.889  0.0000E+00  0.9600E+00
    -18.682  0.0000E+00  0.9600E+00
    -18.474  0.0000E+00  0.9600E+00
    -18.266  0.0000E+00  0.9600E+00
    -18.058  0.0000E+00  0.9600E+00
    -17.851  0.0000E+00  0.9600E+00
    -17.643  0.0000E+00  0.9600E+00
    -17.435  0.0000E+00  0.9600E+00
    -17.227  0.0000E+00  0.9600E+00
    -17.020  0.0000E+00  0.9600E+00
    -16.812  0.0000E+00  0.9600E+00
    -16.604  0.0000E+00  0.9600E+00
    -16.397  0.0000E+00  0.9600E+00
    -16.189  0.0000E+00  0.9600E+00
    -15.981  0.0000E+00  0.9600E+00
    -15.773  0.0000E+00  0.9600E+00
    -15.566  0.0000E+00  0.9600E+00
    -15.358  0.0000E+00  0.9600E+00
    -15.150  0.0000E+00  0.9600E+00
    -14.942  0.0000E+00  0.9600E+00
    -14.735  0.0000E+00  0.9600E+00
    -14.527  0.0000E+00  0.9600E+00
    -14.319  0.0000E+00  0.9600E+00
    -14.111  0.0000E+00  0.9600E+00
    -13.904  0.0000E+00  0.9600E+00
    -13.696  0.0000E+00  0.9600E+00
    -13.488  0.0000E+00  0.9600E+00
    -13.280  0.0000E+00  0.9600E+00
    -13.073  0.0000E+00  0.9600E+00
    -12.865  0.0000E+00  0.9600E+00
    -12.657  0.0000E+00  0.9600E+00
    -12.449  0.0000E+00  0.9600E+00
    -12.242  0.0000E+00  0.9600E+00
    -12.034  0.0000E+00  0.9600E+00
    -11.826  0.0000E+00  0.9600E+00
    -11.618  0.0000E+00  0.9600E+00
    -11.411  0.0000E+00  0.9600E+00
    -11.203  0.0000E+00  0.9600E+00
    -10.995  0.0000E+00  0.9600E+00
    -10.787  0.0000E+00  0.9600E+00
    -10.580  0.0000E+00  0.9600E+00
    -10.372  0.0000E+00  0.9600E+00
    -10.164  0.0000E+00  0.9600E+00
     -9.956  0.0000E+00  0.9600E+00
     -9.749  0.0000E+00  0.9600E+00
     -9.541  0.0000E+00  0.9600E+00
     -9.333  0.0000E+00  0.9600E+00
     -9.125  0.0000E+00  0.9600E+00
     -8.918  0.0000E+00  0.9600E+00
     -8.710  0.0000E+00  0.9600E+00
     -8.502  0.0000E+00  0.9600E+00
     -8.294  0.0000E+00  0.9600E+00
     -8.087  0.0000E+00  0.9600E+00
     -7.879  0.0000E+00  0.9600E+00
     -7.671  0.0000E+00  0.9600E+00
     -7.463  0.0000E+00  0.9600E+00
     -7.256  0.0000E+00  0.9600E+00
     -7.048  0.0000E+00  0.9600E+00
     -6.840  0.0000E+00  0.9600E+00
     -6.632  0.0000E+00  0.9600E+00
     -6.425  0.0000E+00  0.9600E+00
     -6.217  0.0000E+00  0.9600E+00
     -6.009  0.0000E+00  0.9600E+00
     -5.801  0.0000E+00  0.9600E+00
     -5.594  0.0000E+00  0.9600E+00
     -5.386  0.0000E+00  0.9600E+00
     -5.178  0.0000E+00  0.9600E+00
     -4.970  0.0000E+00  0.9600E+00
     -4.763  0.0000E+00  0.9600E+00
     -4.555  0.0000E+00  0.9600E+00
     -4.347  0.0000E+00  0.9600E+00
     -4.139  0.0000E+00  0.9600E+00
     -3.932  0.0000E+00  0.9600E+00
     -3.724  0.0000E+00  0.9600E+00
     -3.516  0.0000E+00  0.9600E+00
     -3.308  0.0000E+00  0.9600E+00
     -3.101  0.0000E+00  0.9600E+00
     -2.893  0.0000E+00  0.9600E+00
     -2.685  0.0000E+00  0.9600E+00
     -2.477  0.0000E+00  0.9600E+00
     -2.270 -0.1188E-35  0.9600E+00
     -2.062 -0.3035E-28  0.9600E+00
     -1.854 -0.8792E-22  0.9600E+00
     -1.646 -0.2820E-16  0.9600E+00
     -1.439 -0.1047E-11  0.9600E+00
     -1.231 -0.4403E-08  0.9600E+00
     -1.023 -0.2063E-05  0.9600E+00
     -0.815 -0.9899E-04  0.9600E+00
     -0.608 -0.6168E-04  0.9600E+00
     -0.400  0.5100E-02  0.9610E+00
     -0.192  0.1787E-01  0.9647E+00
      0.016  0.2880E-01  0.9707E+00
      0.223  0.3759E-01  0.9785E+00
      0.431  0.2835E-01  0.9844E+00
      0.639  0.5563E-01  0.9960E+00
      0.847  0.7489E-01  0.1012E+01
      1.054  0.5685E-01  0.1023E+01
      1.262  0.5824E-01  0.1035E+01
      1.470  0.8563E-01  0.1053E+01
      1.678  0.8391E-01  0.1071E+01
      1.885  0.9199E-01  0.1090E+01
      2.093  0.1299E+00  0.1117E+01
      2.301  0.1924E+00  0.1157E+01
      2.509  0.3000E+00  0.1219E+01
      2.716  0.3826E+00  0.1299E+01
      2.924  0.4554E+00  0.1393E+01
      3.132  0.5470E+00  0.1507E+01
      3.340  0.5941E+00  0.1630E+01
      3.547  0.5807E+00  0.1751E+01
      3.755  0.5868E+00  0.1873E+01
      3.963  0.6184E+00  0.2001E+01
      4.171  0.5827E+00  0.2122E+01
      4.378  0.4976E+00  0.2226E+01
      4.586  0.5234E+00  0.2334E+01
      4.794  0.7004E+00  0.2480E+01
      5.002  0.8317E+00  0.2653E+01
      5.209  0.7939E+00  0.2818E+01
      5.417  0.7514E+00  0.2974E+01
      5.625  0.7313E+00  0.3126E+01
      5.833  0.7245E+00  0.3276E+01
      6.040  0.7700E+00  0.3436E+01
      6.248  0.8307E+00  0.3609E+01
      6.456  0.7810E+00  0.3771E+01
      6.664  0.7153E+00  0.3920E+01
      6.871  0.6327E+00  0.4051E+01
      7.079  0.4981E+00  0.4154E+01
      7.287  0.3754E+00  0.4232E+01
      7.495  0.3274E+00  0.4300E+01
      7.702  0.3111E+00  0.4365E+01
      7.910  0.3206E+00  0.4432E+01
      8.118  0.3762E+00  0.4510E+01
      8.326  0.4225E+00  0.4598E+01
      8.533  0.4037E+00  0.4681E+01
      8.741  0.2995E+00  0.4744E+01
      8.949  0.1802E+00  0.4781E+01
      9.157  0.7861E-01  0.4797E+01
      9.364  0.1390E-01  0.4800E+01
      9.572 -0.1437E-02  0.4800E+01
      9.780 -0.2268E-03  0.4800E+01
      9.988 -0.2593E-05  0.4800E+01
     10.195 -0.3267E-08  0.4800E+01
     10.403 -0.4735E-12  0.4800E+01
     10.611 -0.8893E-17  0.4800E+01
     10.819  0.0000E+00  0.4800E+01
     11.026  0.0000E+00  0.4800E+01
     11.234  0.0000E+00  0.4800E+01
     11.442  0.0000E+00  0.4800E+01
     11.650  0.0000E+00  0.4800E+01
     11.857  0.0000E+00  0.4800E+01
     12.065  0.0000E+00  0.4800E+01
