   29   29   50    1
  0.1679057E+02  0.5525242E-09  0.8287863E-09  0.1139058E-08  0.5000000E-15
  1.000000000000000E-004
  CAR 
 SQS with 1 vacancy for VFE and VRV      
    198     63    120
 
  0.0000000E+00  0.0000000E+00  0.0000000E+00  0.8000000E-02
    1      -47.426574   1.000000
    2      -47.318583   1.000000
    3      -47.282896   1.000000
    4      -47.236351   1.000000
    5      -47.118427   1.000000
    6      -47.001448   1.000000
    7      -24.083146   1.000000
    8      -23.875372   1.000000
    9      -23.753680   1.000000
   10      -23.691398   1.000000
   11      -23.566675   1.000000
   12      -23.510994   1.000000
   13      -23.474292   1.000000
   14      -23.459123   1.000000
   15      -23.437411   1.000000
   16      -23.398292   1.000000
   17      -23.344456   1.000000
   18      -23.297446   1.000000
   19      -23.267973   1.000000
   20      -23.203226   1.000000
   21      -23.183658   1.000000
   22      -23.061677   1.000000
   23      -22.977707   1.000000
   24      -22.717970   1.000000
   25       -0.512878   1.000000
   26        0.732685   1.000000
   27        1.311806   1.000000
   28        1.974631   1.000000
   29        2.069940   1.000000
   30        2.168695   1.000000
   31        2.295106   1.000000
   32        2.422723   1.000000
   33        2.487627   1.000000
   34        2.549388   1.000000
   35        2.613456   1.000000
   36        2.698542   1.000000
   37        2.765573   1.000000
   38        2.884340   1.000000
   39        2.951280   1.000000
   40        3.011074   1.000000
   41        3.079415   1.000000
   42        3.200101   1.000000
   43        3.235142   1.000000
   44        3.315108   1.000000
   45        3.419092   1.000000
   46        3.445825   1.000000
   47        3.487972   1.000000
   48        3.607951   1.000000
   49        3.651836   1.000000
   50        3.762235   1.000000
   51        3.797827   1.000000
   52        3.863191   1.000000
   53        3.901261   1.000000
   54        3.994254   1.000000
   55        4.158213   1.000000
   56        4.216379   1.000000
   57        4.273234   1.000000
   58        4.393107   1.000000
   59        4.493779   1.000000
   60        4.532282   1.000000
   61        4.551222   1.000000
   62        4.677012   1.000000
   63        4.737062   1.000000
   64        4.821897   1.000000
   65        4.834527   1.000000
   66        4.860489   1.000000
   67        4.918010   1.000000
   68        4.958655   1.000000
   69        4.991454   1.000000
   70        5.016893   1.000000
   71        5.084451   1.000000
   72        5.113841   1.000000
   73        5.188405   1.000000
   74        5.267285   1.000000
   75        5.359388   1.000000
   76        5.457815   1.000000
   77        5.476313   1.000000
   78        5.510020   1.000000
   79        5.629428   1.000000
   80        5.686838   1.000000
   81        5.848971   1.000000
   82        5.889860   1.000000
   83        5.918416   1.000000
   84        5.959896   1.000000
   85        6.042667   1.000008
   86        6.095763   1.000042
   87        6.180825   1.000419
   88        6.217057   1.000992
   89        6.271201   1.003117
   90        6.326369   1.008315
   91        6.401699   1.022552
   92        6.458383   1.034043
   93        6.564694   0.989058
   94        6.570619   0.980983
   95        6.640208   0.822169
   96        6.744080   0.415197
   97        6.836015   0.098523
   98        6.918320  -0.021969
   99        6.989100  -0.034089
  100        7.053806  -0.020800
  101        7.124720  -0.007892
  102        7.191323  -0.002325
  103        7.250383  -0.000628
  104        7.518315  -0.000000
  105        7.553873  -0.000000
  106        7.740532  -0.000000
  107        7.799122  -0.000000
  108        7.843320  -0.000000
  109        8.045791  -0.000000
  110        8.419992  -0.000000
  111        8.477680  -0.000000
  112        8.534500  -0.000000
  113        8.583050  -0.000000
  114        8.721357  -0.000000
  115        8.752247  -0.000000
  116        8.896736  -0.000000
  117        8.973430  -0.000000
  118        9.062778  -0.000000
  119        9.085821  -0.000000
  120        9.149676  -0.000000
 
  0.2000000E+00 -0.1387779E-16  0.0000000E+00  0.1600000E-01
    1      -47.421190   1.000000
    2      -47.317815   1.000000
    3      -47.282283   1.000000
    4      -47.235961   1.000000
    5      -47.118387   1.000000
    6      -47.007446   1.000000
    7      -23.979702   1.000000
    8      -23.871789   1.000000
    9      -23.748326   1.000000
   10      -23.688632   1.000000
   11      -23.560616   1.000000
   12      -23.516420   1.000000
   13      -23.481271   1.000000
   14      -23.462567   1.000000
   15      -23.441454   1.000000
   16      -23.403628   1.000000
   17      -23.345664   1.000000
   18      -23.300637   1.000000
   19      -23.269777   1.000000
   20      -23.209896   1.000000
   21      -23.188091   1.000000
   22      -23.067789   1.000000
   23      -22.979502   1.000000
   24      -22.843468   1.000000
   25       -0.196619   1.000000
   26        1.011607   1.000000
   27        1.567470   1.000000
   28        2.028577   1.000000
   29        2.294149   1.000000
   30        2.351918   1.000000
   31        2.491208   1.000000
   32        2.621028   1.000000
   33        2.656414   1.000000
   34        2.749319   1.000000
   35        2.798929   1.000000
   36        2.887623   1.000000
   37        2.984836   1.000000
   38        3.022986   1.000000
   39        3.146359   1.000000
   40        3.181575   1.000000
   41        3.227196   1.000000
   42        3.270389   1.000000
   43        3.317976   1.000000
   44        3.395875   1.000000
   45        3.464662   1.000000
   46        3.573370   1.000000
   47        3.675819   1.000000
   48        3.778433   1.000000
   49        3.823234   1.000000
   50        3.886258   1.000000
   51        3.904078   1.000000
   52        3.963653   1.000000
   53        4.034996   1.000000
   54        4.078197   1.000000
   55        4.215312   1.000000
   56        4.276706   1.000000
   57        4.380688   1.000000
   58        4.489187   1.000000
   59        4.518762   1.000000
   60        4.564647   1.000000
   61        4.699363   1.000000
   62        4.748917   1.000000
   63        4.801622   1.000000
   64        4.851285   1.000000
   65        4.900821   1.000000
   66        4.952882   1.000000
   67        4.979565   1.000000
   68        5.042210   1.000000
   69        5.070620   1.000000
   70        5.148218   1.000000
   71        5.192953   1.000000
   72        5.220967   1.000000
   73        5.263524   1.000000
   74        5.324143   1.000000
   75        5.386207   1.000000
   76        5.450693   1.000000
   77        5.514341   1.000000
   78        5.546500   1.000000
   79        5.604382   1.000000
   80        5.623974   1.000000
   81        5.736471   1.000000
   82        5.848678   1.000000
   83        5.898650   1.000000
   84        5.926289   1.000000
   85        6.007259   1.000002
   86        6.068543   1.000018
   87        6.119014   1.000081
   88        6.165190   1.000282
   89        6.231015   1.001355
   90        6.279209   1.003637
   91        6.306240   1.005946
   92        6.340039   1.010281
   93        6.387134   1.019252
   94        6.461280   1.034391
   95        6.531358   1.020828
   96        6.587850   0.952835
   97        6.659525   0.757472
   98        6.759518   0.352007
   99        6.787490   0.245502
  100        6.915080  -0.019908
  101        6.960325  -0.035160
  102        7.014193  -0.029756
  103        7.085294  -0.014170
  104        7.142050  -0.005901
  105        7.271278  -0.000377
  106        7.373282  -0.000022
  107        7.455459  -0.000001
  108        7.616295  -0.000000
  109        7.764299  -0.000000
  110        7.901727  -0.000000
  111        7.967699  -0.000000
  112        8.045598  -0.000000
  113        8.151668  -0.000000
  114        8.239386  -0.000000
  115        8.326580  -0.000000
  116        8.395585  -0.000000
  117        8.497953  -0.000000
  118        8.557427  -0.000000
  119        8.694978  -0.000000
  120        8.772090  -0.000000
 
  0.4000000E+00 -0.2775558E-16  0.0000000E+00  0.1600000E-01
    1      -47.412142   1.000000
    2      -47.316549   1.000000
    3      -47.281288   1.000000
    4      -47.235340   1.000000
    5      -47.118325   1.000000
    6      -47.017499   1.000000
    7      -23.886740   1.000000
    8      -23.771852   1.000000
    9      -23.684229   1.000000
   10      -23.667278   1.000000
   11      -23.549904   1.000000
   12      -23.526426   1.000000
   13      -23.492237   1.000000
   14      -23.468343   1.000000
   15      -23.448597   1.000000
   16      -23.411118   1.000000
   17      -23.347618   1.000000
   18      -23.305595   1.000000
   19      -23.274260   1.000000
   20      -23.221320   1.000000
   21      -23.206813   1.000000
   22      -23.130255   1.000000
   23      -23.076209   1.000000
   24      -22.978706   1.000000
   25        0.609624   1.000000
   26        1.551969   1.000000
   27        1.991574   1.000000
   28        2.241024   1.000000
   29        2.382915   1.000000
   30        2.548650   1.000000
   31        2.674998   1.000000
   32        2.811706   1.000000
   33        3.020922   1.000000
   34        3.069445   1.000000
   35        3.122280   1.000000
   36        3.200380   1.000000
   37        3.240412   1.000000
   38        3.349665   1.000000
   39        3.389938   1.000000
   40        3.417639   1.000000
   41        3.504892   1.000000
   42        3.565621   1.000000
   43        3.664013   1.000000
   44        3.693907   1.000000
   45        3.755019   1.000000
   46        3.800400   1.000000
   47        3.907381   1.000000
   48        3.986966   1.000000
   49        4.004665   1.000000
   50        4.104961   1.000000
   51        4.123906   1.000000
   52        4.260170   1.000000
   53        4.305358   1.000000
   54        4.312380   1.000000
   55        4.382246   1.000000
   56        4.448269   1.000000
   57        4.534776   1.000000
   58        4.601557   1.000000
   59        4.659961   1.000000
   60        4.713640   1.000000
   61        4.774741   1.000000
   62        4.804796   1.000000
   63        4.866848   1.000000
   64        4.888429   1.000000
   65        4.930064   1.000000
   66        4.978849   1.000000
   67        5.044651   1.000000
   68        5.092584   1.000000
   69        5.120446   1.000000
   70        5.188785   1.000000
   71        5.238052   1.000000
   72        5.269139   1.000000
   73        5.345827   1.000000
   74        5.388519   1.000000
   75        5.445891   1.000000
   76        5.497416   1.000000
   77        5.544015   1.000000
   78        5.583137   1.000000
   79        5.617331   1.000000
   80        5.700788   1.000000
   81        5.717988   1.000000
   82        5.772326   1.000000
   83        5.872598   1.000000
   84        5.896718   1.000000
   85        5.924450   1.000000
   86        6.019479   1.000004
   87        6.082601   1.000028
   88        6.093603   1.000039
   89        6.143168   1.000158
   90        6.172570   1.000341
   91        6.261420   1.002567
   92        6.304428   1.005761
   93        6.367550   1.015138
   94        6.383840   1.018529
   95        6.426467   1.028214
   96        6.443347   1.031666
   97        6.511189   1.030536
   98        6.586431   0.955423
   99        6.611237   0.902933
  100        6.636205   0.834536
  101        6.719565   0.518447
  102        6.746466   0.405290
  103        6.847356   0.072436
  104        6.872577   0.025925
  105        6.904939  -0.012265
  106        7.014053  -0.029785
  107        7.065672  -0.018168
  108        7.159317  -0.004331
  109        7.297187  -0.000193
  110        7.385256  -0.000015
  111        7.494589  -0.000000
  112        7.625696  -0.000000
  113        7.675838  -0.000000
  114        7.770502  -0.000000
  115        7.821375  -0.000000
  116        7.924120  -0.000000
  117        8.050133  -0.000000
  118        8.238169  -0.000000
  119        8.333910  -0.000000
  120        8.387108  -0.000000
 
  0.0000000E+00  0.2000000E+00  0.1387779E-16  0.1600000E-01
    1      -47.426573   1.000000
    2      -47.318526   1.000000
    3      -47.282732   1.000000
    4      -47.236376   1.000000
    5      -47.118621   1.000000
    6      -47.001445   1.000000
    7      -24.083158   1.000000
    8      -23.874641   1.000000
    9      -23.753050   1.000000
   10      -23.687100   1.000000
   11      -23.566708   1.000000
   12      -23.510966   1.000000
   13      -23.474381   1.000000
   14      -23.459251   1.000000
   15      -23.437533   1.000000
   16      -23.398320   1.000000
   17      -23.344332   1.000000
   18      -23.297306   1.000000
   19      -23.267985   1.000000
   20      -23.203297   1.000000
   21      -23.183689   1.000000
   22      -23.067256   1.000000
   23      -22.978791   1.000000
   24      -22.717975   1.000000
   25       -0.368243   1.000000
   26        0.826068   1.000000
   27        1.380724   1.000000
   28        1.537679   1.000000
   29        1.999364   1.000000
   30        2.263949   1.000000
   31        2.311655   1.000000
   32        2.471206   1.000000
   33        2.520013   1.000000
   34        2.580082   1.000000
   35        2.620296   1.000000
   36        2.679084   1.000000
   37        2.790122   1.000000
   38        2.878620   1.000000
   39        2.912415   1.000000
   40        2.958379   1.000000
   41        3.018674   1.000000
   42        3.149302   1.000000
   43        3.168849   1.000000
   44        3.313919   1.000000
   45        3.413355   1.000000
   46        3.454647   1.000000
   47        3.589958   1.000000
   48        3.677443   1.000000
   49        3.727821   1.000000
   50        3.783656   1.000000
   51        3.842003   1.000000
   52        3.888727   1.000000
   53        3.971368   1.000000
   54        4.018452   1.000000
   55        4.109686   1.000000
   56        4.154896   1.000000
   57        4.293108   1.000000
   58        4.435569   1.000000
   59        4.478498   1.000000
   60        4.587181   1.000000
   61        4.654985   1.000000
   62        4.696392   1.000000
   63        4.736567   1.000000
   64        4.821173   1.000000
   65        4.850227   1.000000
   66        4.913790   1.000000
   67        4.949961   1.000000
   68        4.998641   1.000000
   69        5.046394   1.000000
   70        5.084846   1.000000
   71        5.127907   1.000000
   72        5.201432   1.000000
   73        5.232204   1.000000
   74        5.335759   1.000000
   75        5.341759   1.000000
   76        5.458092   1.000000
   77        5.523039   1.000000
   78        5.563557   1.000000
   79        5.657683   1.000000
   80        5.762879   1.000000
   81        5.812582   1.000000
   82        5.879369   1.000000
   83        5.926109   1.000000
   84        5.978746   1.000001
   85        6.025815   1.000005
   86        6.091583   1.000037
   87        6.114191   1.000071
   88        6.157562   1.000232
   89        6.196013   1.000607
   90        6.240409   1.001660
   91        6.298592   1.005198
   92        6.332132   1.009107
   93        6.373991   1.016438
   94        6.467321   1.034975
   95        6.532830   1.019868
   96        6.685613   0.658861
   97        6.747683   0.400255
   98        6.841485   0.085535
   99        7.016984  -0.029168
  100        7.114474  -0.009285
  101        7.219053  -0.001290
  102        7.280483  -0.000299
  103        7.345198  -0.000051
  104        7.447505  -0.000002
  105        7.550274  -0.000000
  106        7.719427  -0.000000
  107        7.799280  -0.000000
  108        7.925392  -0.000000
  109        8.016625  -0.000000
  110        8.087945  -0.000000
  111        8.173124  -0.000000
  112        8.248056  -0.000000
  113        8.325575  -0.000000
  114        8.594742  -0.000000
  115        8.649812  -0.000000
  116        8.750699  -0.000000
  117        8.825793  -0.000000
  118        8.874039  -0.000000
  119        8.919616  -0.000000
  120        8.966312  -0.000000
 
  0.2000000E+00  0.2000000E+00 -0.4857226E-16  0.1600000E-01
    1      -47.421190   1.000000
    2      -47.317868   1.000000
    3      -47.282441   1.000000
    4      -47.235938   1.000000
    5      -47.118200   1.000000
    6      -47.007449   1.000000
    7      -23.979702   1.000000
    8      -23.872505   1.000000
    9      -23.748938   1.000000
   10      -23.692778   1.000000
   11      -23.560611   1.000000
   12      -23.516430   1.000000
   13      -23.481269   1.000000
   14      -23.462484   1.000000
   15      -23.441417   1.000000
   16      -23.403573   1.000000
   17      -23.345758   1.000000
   18      -23.300611   1.000000
   19      -23.269744   1.000000
   20      -23.209824   1.000000
   21      -23.188063   1.000000
   22      -23.062357   1.000000
   23      -22.978492   1.000000
   24      -22.843455   1.000000
   25       -0.190776   1.000000
   26        0.990245   1.000000
   27        1.557284   1.000000
   28        1.931151   1.000000
   29        2.263406   1.000000
   30        2.355839   1.000000
   31        2.440487   1.000000
   32        2.545881   1.000000
   33        2.656601   1.000000
   34        2.713711   1.000000
   35        2.795274   1.000000
   36        2.831243   1.000000
   37        2.951144   1.000000
   38        3.025351   1.000000
   39        3.060397   1.000000
   40        3.149468   1.000000
   41        3.226731   1.000000
   42        3.286355   1.000000
   43        3.373985   1.000000
   44        3.453386   1.000000
   45        3.487354   1.000000
   46        3.564062   1.000000
   47        3.667571   1.000000
   48        3.787138   1.000000
   49        3.822626   1.000000
   50        3.849718   1.000000
   51        3.898409   1.000000
   52        3.948941   1.000000
   53        4.095943   1.000000
   54        4.140897   1.000000
   55        4.268178   1.000000
   56        4.344307   1.000000
   57        4.359532   1.000000
   58        4.443383   1.000000
   59        4.505148   1.000000
   60        4.607562   1.000000
   61        4.680120   1.000000
   62        4.741922   1.000000
   63        4.790366   1.000000
   64        4.814543   1.000000
   65        4.889798   1.000000
   66        4.930444   1.000000
   67        4.963105   1.000000
   68        4.988568   1.000000
   69        5.060779   1.000000
   70        5.117661   1.000000
   71        5.140559   1.000000
   72        5.190160   1.000000
   73        5.252536   1.000000
   74        5.327764   1.000000
   75        5.380077   1.000000
   76        5.434462   1.000000
   77        5.513000   1.000000
   78        5.526785   1.000000
   79        5.635574   1.000000
   80        5.677733   1.000000
   81        5.735758   1.000000
   82        5.765494   1.000000
   83        5.824127   1.000000
   84        5.948027   1.000000
   85        5.993344   1.000002
   86        6.042724   1.000008
   87        6.108054   1.000060
   88        6.143081   1.000158
   89        6.161404   1.000256
   90        6.239705   1.001635
   91        6.340069   1.010286
   92        6.390168   1.019927
   93        6.413835   1.025358
   94        6.474426   1.035381
   95        6.643841   0.810622
   96        6.676216   0.695644
   97        6.732321   0.464508
   98        6.825873   0.124600
   99        6.903246  -0.010804
  100        6.925549  -0.025949
  101        6.975774  -0.035283
  102        7.095392  -0.012327
  103        7.126912  -0.007616
  104        7.171603  -0.003437
  105        7.253514  -0.000583
  106        7.316393  -0.000115
  107        7.421104  -0.000005
  108        7.469032  -0.000001
  109        7.812564  -0.000000
  110        7.864583  -0.000000
  111        7.937525  -0.000000
  112        8.127845  -0.000000
  113        8.364340  -0.000000
  114        8.452048  -0.000000
  115        8.611643  -0.000000
  116        8.653743  -0.000000
  117        8.807716  -0.000000
  118        8.913635  -0.000000
  119        8.934239  -0.000000
  120        9.043477  -0.000000
 
  0.4000000E+00  0.2000000E+00 -0.5551115E-16  0.1600000E-01
    1      -47.412144   1.000000
    2      -47.316636   1.000000
    3      -47.281549   1.000000
    4      -47.235301   1.000000
    5      -47.118019   1.000000
    6      -47.017503   1.000000
    7      -23.887688   1.000000
    8      -23.772714   1.000000
    9      -23.691441   1.000000
   10      -23.667277   1.000000
   11      -23.549872   1.000000
   12      -23.526547   1.000000
   13      -23.492247   1.000000
   14      -23.468187   1.000000
   15      -23.448526   1.000000
   16      -23.411010   1.000000
   17      -23.347778   1.000000
   18      -23.305610   1.000000
   19      -23.274230   1.000000
   20      -23.221185   1.000000
   21      -23.206786   1.000000
   22      -23.130031   1.000000
   23      -23.066983   1.000000
   24      -22.977381   1.000000
   25        0.524622   1.000000
   26        1.492145   1.000000
   27        1.853125   1.000000
   28        2.111277   1.000000
   29        2.374875   1.000000
   30        2.436787   1.000000
   31        2.637536   1.000000
   32        2.928117   1.000000
   33        3.011059   1.000000
   34        3.095891   1.000000
   35        3.196857   1.000000
   36        3.238019   1.000000
   37        3.305596   1.000000
   38        3.370036   1.000000
   39        3.435569   1.000000
   40        3.480160   1.000000
   41        3.505774   1.000000
   42        3.597917   1.000000
   43        3.645724   1.000000
   44        3.668867   1.000000
   45        3.725348   1.000000
   46        3.816086   1.000000
   47        3.887387   1.000000
   48        3.968195   1.000000
   49        4.035521   1.000000
   50        4.053714   1.000000
   51        4.095715   1.000000
   52        4.146996   1.000000
   53        4.166833   1.000000
   54        4.243067   1.000000
   55        4.264803   1.000000
   56        4.407870   1.000000
   57        4.495414   1.000000
   58        4.536529   1.000000
   59        4.647208   1.000000
   60        4.725892   1.000000
   61        4.795453   1.000000
   62        4.827370   1.000000
   63        4.879032   1.000000
   64        4.930119   1.000000
   65        4.954728   1.000000
   66        4.987373   1.000000
   67        5.037911   1.000000
   68        5.087632   1.000000
   69        5.138674   1.000000
   70        5.190026   1.000000
   71        5.245252   1.000000
   72        5.285178   1.000000
   73        5.362323   1.000000
   74        5.398181   1.000000
   75        5.445873   1.000000
   76        5.496345   1.000000
   77        5.537204   1.000000
   78        5.580103   1.000000
   79        5.651662   1.000000
   80        5.734453   1.000000
   81        5.777223   1.000000
   82        5.815359   1.000000
   83        5.851340   1.000000
   84        5.899511   1.000000
   85        5.937703   1.000000
   86        5.958717   1.000000
   87        6.002609   1.000002
   88        6.069664   1.000019
   89        6.099852   1.000047
   90        6.155304   1.000219
   91        6.223470   1.001146
   92        6.239609   1.001632
   93        6.288238   1.004308
   94        6.339565   1.010208
   95        6.367116   1.015052
   96        6.435874   1.030212
   97        6.458288   1.034031
   98        6.489598   1.034991
   99        6.558988   0.996096
  100        6.660238   0.754933
  101        6.692996   0.629153
  102        6.723164   0.503222
  103        6.793869   0.223152
  104        6.876128   0.020609
  105        6.975554  -0.035294
  106        7.025416  -0.027318
  107        7.204988  -0.001749
  108        7.249569  -0.000641
  109        7.444435  -0.000002
  110        7.601508  -0.000000
  111        7.712680  -0.000000
  112        7.842392  -0.000000
  113        7.990370  -0.000000
  114        8.026197  -0.000000
  115        8.132853  -0.000000
  116        8.211987  -0.000000
  117        8.322473  -0.000000
  118        8.371698  -0.000000
  119        8.434715  -0.000000
  120        8.563585  -0.000000
 
 -0.4000000E+00  0.2000000E+00 -0.3908332E-16  0.1600000E-01
    1      -47.412142   1.000000
    2      -47.316547   1.000000
    3      -47.281285   1.000000
    4      -47.235341   1.000000
    5      -47.118329   1.000000
    6      -47.017498   1.000000
    7      -23.886730   1.000000
    8      -23.771853   1.000000
    9      -23.684173   1.000000
   10      -23.667280   1.000000
   11      -23.549921   1.000000
   12      -23.526406   1.000000
   13      -23.492298   1.000000
   14      -23.468364   1.000000
   15      -23.448613   1.000000
   16      -23.411112   1.000000
   17      -23.347599   1.000000
   18      -23.305516   1.000000
   19      -23.274254   1.000000
   20      -23.221322   1.000000
   21      -23.206812   1.000000
   22      -23.130250   1.000000
   23      -23.076299   1.000000
   24      -22.978739   1.000000
   25        0.871474   1.000000
   26        1.513746   1.000000
   27        1.759372   1.000000
   28        2.155544   1.000000
   29        2.272891   1.000000
   30        2.567668   1.000000
   31        2.645029   1.000000
   32        2.866296   1.000000
   33        2.931802   1.000000
   34        3.054341   1.000000
   35        3.133063   1.000000
   36        3.209610   1.000000
   37        3.235577   1.000000
   38        3.291787   1.000000
   39        3.375335   1.000000
   40        3.452310   1.000000
   41        3.498812   1.000000
   42        3.544742   1.000000
   43        3.638255   1.000000
   44        3.699650   1.000000
   45        3.743433   1.000000
   46        3.853378   1.000000
   47        3.925702   1.000000
   48        4.005061   1.000000
   49        4.034375   1.000000
   50        4.120803   1.000000
   51        4.186297   1.000000
   52        4.219879   1.000000
   53        4.326943   1.000000
   54        4.425094   1.000000
   55        4.459884   1.000000
   56        4.495208   1.000000
   57        4.550302   1.000000
   58        4.619933   1.000000
   59        4.658864   1.000000
   60        4.718590   1.000000
   61        4.771877   1.000000
   62        4.823278   1.000000
   63        4.862435   1.000000
   64        4.874910   1.000000
   65        4.931403   1.000000
   66        5.010380   1.000000
   67        5.039261   1.000000
   68        5.067579   1.000000
   69        5.114536   1.000000
   70        5.142950   1.000000
   71        5.191962   1.000000
   72        5.234258   1.000000
   73        5.276653   1.000000
   74        5.371171   1.000000
   75        5.410916   1.000000
   76        5.487172   1.000000
   77        5.518519   1.000000
   78        5.599826   1.000000
   79        5.675846   1.000000
   80        5.720327   1.000000
   81        5.732241   1.000000
   82        5.792140   1.000000
   83        5.854937   1.000000
   84        5.876131   1.000000
   85        5.921324   1.000000
   86        5.980512   1.000001
   87        6.047782   1.000009
   88        6.053465   1.000011
   89        6.137166   1.000135
   90        6.175364   1.000366
   91        6.221602   1.001099
   92        6.294445   1.004825
   93        6.318295   1.007292
   94        6.371674   1.015964
   95        6.449014   1.032661
   96        6.494708   1.034399
   97        6.531164   1.020952
   98        6.587926   0.952695
   99        6.608019   0.910617
  100        6.655255   0.772450
  101        6.709530   0.560736
  102        6.769908   0.311015
  103        6.831059   0.110943
  104        6.882560   0.011720
  105        6.954625  -0.034598
  106        7.037438  -0.024567
  107        7.159667  -0.004304
  108        7.166594  -0.003781
  109        7.252236  -0.000601
  110        7.283306  -0.000278
  111        7.452492  -0.000002
  112        7.615024  -0.000000
  113        7.752654  -0.000000
  114        7.814350  -0.000000
  115        8.024209  -0.000000
  116        8.119249  -0.000000
  117        8.236218  -0.000000
  118        8.281087  -0.000000
  119        8.325636  -0.000000
  120        8.368351  -0.000000
 
 -0.2000000E+00  0.2000000E+00  0.1006140E-15  0.1600000E-01
    1      -47.421187   1.000000
    2      -47.317723   1.000000
    3      -47.282016   1.000000
    4      -47.236002   1.000000
    5      -47.118700   1.000000
    6      -47.007442   1.000000
    7      -23.979706   1.000000
    8      -23.870646   1.000000
    9      -23.747485   1.000000
   10      -23.681355   1.000000
   11      -23.560666   1.000000
   12      -23.516324   1.000000
   13      -23.481394   1.000000
   14      -23.462756   1.000000
   15      -23.441602   1.000000
   16      -23.403694   1.000000
   17      -23.345456   1.000000
   18      -23.300462   1.000000
   19      -23.269798   1.000000
   20      -23.210024   1.000000
   21      -23.188150   1.000000
   22      -23.077244   1.000000
   23      -22.981021   1.000000
   24      -22.843479   1.000000
   25        0.066720   1.000000
   26        1.134257   1.000000
   27        1.446609   1.000000
   28        1.792165   1.000000
   29        2.116945   1.000000
   30        2.458509   1.000000
   31        2.561391   1.000000
   32        2.655355   1.000000
   33        2.733201   1.000000
   34        2.794774   1.000000
   35        2.863662   1.000000
   36        2.882606   1.000000
   37        2.961594   1.000000
   38        3.022568   1.000000
   39        3.064893   1.000000
   40        3.093315   1.000000
   41        3.181647   1.000000
   42        3.209454   1.000000
   43        3.316903   1.000000
   44        3.454784   1.000000
   45        3.491204   1.000000
   46        3.530199   1.000000
   47        3.677361   1.000000