       N       E                     dE             d eps       ncg     rms          rms(c)
DAV:   1     0.215271533041E+04    0.21527E+04   -0.91360E+04 15120   0.175E+03
DAV:   2     0.725396329400E+02   -0.20802E+04   -0.20179E+04 15192   0.518E+02
DAV:   3    -0.299937474756E+03   -0.37248E+03   -0.35430E+03 26360   0.182E+02
DAV:   4    -0.346028935468E+03   -0.46091E+02   -0.42566E+02 23384   0.598E+01
DAV:   5    -0.351081630533E+03   -0.50527E+01   -0.49243E+01 28792   0.219E+01    0.737E+01
DAV:   6    -0.341454694200E+03    0.96269E+01   -0.11727E+02 20728   0.299E+01    0.375E+01
DAV:   7    -0.356106327968E+03   -0.14652E+02   -0.45549E+02 21864   0.900E+01    0.259E+01
DAV:   8    -0.344057470440E+03    0.12049E+02   -0.87398E+01 22536   0.309E+01    0.189E+01
DAV:   9    -0.334065094897E+03    0.99924E+01   -0.16049E+01 20928   0.142E+01    0.135E+01
DAV:  10    -0.330560135562E+03    0.35050E+01   -0.92314E+00 21936   0.870E+00    0.946E+00
DAV:  11    -0.329279796876E+03    0.12803E+01   -0.42159E+00 22640   0.563E+00    0.557E+00
DAV:  12    -0.329041898321E+03    0.23790E+00   -0.19962E+00 23112   0.437E+00    0.348E+00
DAV:  13    -0.328957481402E+03    0.84417E-01   -0.10587E+00 22152   0.333E+00    0.235E+00
DAV:  14    -0.328873729295E+03    0.83752E-01   -0.82136E-01 22608   0.280E+00    0.121E+00
DAV:  15    -0.328875327868E+03   -0.15986E-02   -0.33324E-01 23000   0.172E+00    0.110E+00
DAV:  16    -0.328865014482E+03    0.10313E-01   -0.75637E-02 22536   0.818E-01    0.685E-01
DAV:  17    -0.328861349289E+03    0.36652E-02   -0.28947E-02 21752   0.557E-01    0.454E-01
DAV:  18    -0.328858970773E+03    0.23785E-02   -0.24252E-02 21696   0.440E-01    0.177E-01
DAV:  19    -0.328859303190E+03   -0.33242E-03   -0.74796E-03 21128   0.271E-01    0.181E-01
DAV:  20    -0.328858845244E+03    0.45795E-03   -0.43563E-03 20120   0.197E-01    0.678E-02
DAV:  21    -0.328858792326E+03    0.52917E-04   -0.32195E-04 12376   0.758E-02
   1 F= -.32885879E+03 E0= -.32885170E+03  d E =-.328859E+03
       N       E                     dE             d eps       ncg     rms          rms(c)
DAV:   1    -0.330099768747E+03   -0.12409E+01   -0.12346E+02 16096   0.451E+01    0.116E+01
DAV:   2    -0.330431517112E+03   -0.33175E+00   -0.18699E+01 23136   0.183E+01    0.788E+00
DAV:   3    -0.329905607300E+03    0.52591E+00   -0.12163E+01 22144   0.104E+01    0.692E+00
DAV:   4    -0.329493739337E+03    0.41187E+00   -0.73882E+00 23056   0.903E+00    0.396E+00
DAV:   5    -0.329238595739E+03    0.25514E+00   -0.24315E+00 22528   0.537E+00    0.213E+00
DAV:   6    -0.329161496184E+03    0.77100E-01   -0.67820E-01 23504   0.255E+00    0.125E+00
DAV:   7    -0.329168163175E+03   -0.66670E-02   -0.21311E-01 24648   0.139E+00    0.954E-01
DAV:   8    -0.329167568239E+03    0.59494E-03   -0.86697E-02 22760   0.854E-01    0.717E-01
DAV:   9    -0.329170248008E+03   -0.26798E-02   -0.35044E-02 23504   0.585E-01    0.541E-01
DAV:  10    -0.329173114917E+03   -0.28669E-02   -0.31539E-02 22760   0.543E-01    0.424E-01
DAV:  11    -0.329173477955E+03   -0.36304E-03   -0.23531E-02 23600   0.445E-01    0.237E-01
DAV:  12    -0.329173592799E+03   -0.11484E-03   -0.67307E-03 23640   0.246E-01    0.114E-01
DAV:  13    -0.329173748670E+03   -0.15587E-03   -0.22145E-03 23056   0.123E-01    0.596E-02
DAV:  14    -0.329173765779E+03   -0.17109E-04   -0.61877E-04 16264   0.886E-02
   2 F= -.32917377E+03 E0= -.32916743E+03  d E =-.314973E+00
       N       E                     dE             d eps       ncg     rms          rms(c)
DAV:   1    -0.329286253493E+03   -0.11250E+00   -0.88510E+00 16160   0.121E+01    0.318E+00
DAV:   2    -0.329305447238E+03   -0.19194E-01   -0.12095E+00 24104   0.465E+00    0.230E+00
DAV:   3    -0.329298107419E+03    0.73398E-02   -0.11569E+00 22952   0.342E+00    0.198E+00
DAV:   4    -0.329245773791E+03    0.52334E-01   -0.42690E-01 23080   0.214E+00    0.985E-01
DAV:   5    -0.329226752714E+03    0.19021E-01   -0.16317E-01 22560   0.140E+00    0.499E-01
DAV:   6    -0.329223012647E+03    0.37401E-02   -0.47193E-02 23432   0.703E-01    0.315E-01
DAV:   7    -0.329223297010E+03   -0.28436E-03   -0.14252E-02 24400   0.359E-01    0.236E-01
DAV:   8    -0.329223257583E+03    0.39428E-04   -0.56715E-03 20376   0.228E-01    0.186E-01
DAV:   9    -0.329223458439E+03   -0.20086E-03   -0.33591E-03 20208   0.170E-01    0.148E-01
DAV:  10    -0.329223599588E+03   -0.14115E-03   -0.22593E-03 20960   0.150E-01    0.106E-01
DAV:  11    -0.329223596535E+03    0.30528E-05   -0.13213E-03 19512   0.120E-01    0.602E-02
DAV:  12    -0.329223588228E+03    0.83067E-05   -0.47093E-04 14520   0.774E-02
   3 F= -.32922359E+03 E0= -.32921693E+03  d E =-.364796E+00
       N       E                     dE             d eps       ncg     rms          rms(c)
DAV:   1    -0.329429104186E+03   -0.20551E+00   -0.65916E+01 15120   0.268E+01    0.389E+00
DAV:   2    -0.329644586773E+03   -0.21548E+00   -0.47827E+00 22040   0.828E+00    0.290E+00
DAV:   3    -0.329631467142E+03    0.13120E-01   -0.20700E+00 22856   0.458E+00    0.233E+00
DAV:   4    -0.329553857105E+03    0.77610E-01   -0.53086E-01 22856   0.242E+00    0.123E+00
DAV:   5    -0.329545592905E+03    0.82642E-02   -0.22603E-01 22832   0.163E+00    0.101E+00
DAV:   6    -0.329537703593E+03    0.78893E-02   -0.20425E-01 22568   0.136E+00    0.730E-01
DAV:   7    -0.329531076343E+03    0.66272E-02   -0.73349E-02 24600   0.781E-01    0.374E-01
DAV:   8    -0.329530549321E+03    0.52702E-03   -0.16331E-02 22776   0.377E-01    0.291E-01
DAV:   9    -0.329530402046E+03    0.14727E-03   -0.46106E-03 21408   0.209E-01    0.228E-01
DAV:  10    -0.329530663745E+03   -0.26170E-03   -0.29483E-03 20112   0.169E-01    0.169E-01
DAV:  11    -0.329530805979E+03   -0.14223E-03   -0.36301E-03 21336   0.186E-01    0.116E-01
DAV:  12    -0.329530691520E+03    0.11446E-03   -0.15321E-03 20168   0.127E-01    0.372E-02
DAV:  13    -0.329530668896E+03    0.22624E-04   -0.19236E-04 10048   0.656E-02
   4 F= -.32953067E+03 E0= -.32952513E+03  d E =-.307081E+00
       N       E                     dE             d eps       ncg     rms          rms(c)
DAV:   1    -0.329539089693E+03   -0.83982E-02   -0.59610E+00 15120   0.803E+00    0.112E+00
DAV:   2    -0.329558158438E+03   -0.19069E-01   -0.43107E-01 21888   0.250E+00    0.865E-01
DAV:   3    -0.329555604303E+03    0.25541E-02   -0.17715E-01 22488   0.133E+00    0.663E-01
DAV:   4    -0.329549393869E+03    0.62104E-02   -0.44546E-02 22096   0.718E-01    0.356E-01
DAV:   5    -0.329548768994E+03    0.62487E-03   -0.20547E-02 22856   0.486E-01    0.297E-01
DAV:   6    -0.329547969990E+03    0.79900E-03   -0.17029E-02 22808   0.386E-01    0.206E-01
DAV:   7    -0.329547476059E+03    0.49393E-03   -0.58179E-03 20984   0.220E-01    0.111E-01
DAV:   8    -0.329547435078E+03    0.40981E-04   -0.12869E-03 19352   0.111E-01    0.858E-02
DAV:   9    -0.329547416080E+03    0.18998E-04   -0.32527E-04 12104   0.709E-02
   5 F= -.32954742E+03 E0= -.32954244E+03  d E =-.323828E+00
       N       E                     dE             d eps       ncg     rms          rms(c)
DAV:   1    -0.329565513039E+03   -0.18078E-01   -0.37938E+00 15136   0.681E+00    0.909E-01
DAV:   2    -0.329584065576E+03   -0.18553E-01   -0.29868E-01 21432   0.212E+00    0.694E-01
DAV:   3    -0.329582311602E+03    0.17540E-02   -0.10387E-01 22200   0.107E+00    0.528E-01
DAV:   4    -0.329578900539E+03    0.34111E-02   -0.29652E-02 23224   0.558E-01    0.291E-01
DAV:   5    -0.329578651241E+03    0.24930E-03   -0.15916E-02 22536   0.405E-01    0.225E-01
DAV:   6    -0.329577751744E+03    0.89950E-03   -0.65504E-03 23616   0.268E-01    0.900E-02
DAV:   7    -0.329577693263E+03    0.58480E-04   -0.15408E-03 20504   0.126E-01    0.708E-02
DAV:   8    -0.329577669054E+03    0.24209E-04   -0.44739E-04 13824   0.707E-02
   6 F= -.32957767E+03 E0= -.32957265E+03  d E =-.302530E-01
       N       E                     dE             d eps       ncg     rms          rms(c)
DAV:   1    -0.329576549291E+03    0.11440E-02   -0.30187E+00 15120   0.607E+00    0.809E-01
DAV:   2    -0.329591297721E+03   -0.14748E-01   -0.23380E-01 21384   0.187E+00    0.611E-01
DAV:   3    -0.329590497452E+03    0.80027E-03   -0.78931E-02 22328   0.943E-01    0.484E-01
DAV:   4    -0.329587810755E+03    0.26867E-02   -0.24390E-02 22848   0.515E-01    0.286E-01
DAV:   5    -0.329587293566E+03    0.51719E-03   -0.14254E-02 22432   0.371E-01    0.195E-01
DAV:   6    -0.329586690535E+03    0.60303E-03   -0.56493E-03 23672   0.237E-01    0.905E-02
DAV:   7    -0.329586634604E+03    0.55931E-04   -0.17032E-03 20656   0.125E-01    0.722E-02
DAV:   8    -0.329586587346E+03    0.47258E-04   -0.39595E-04 12864   0.691E-02
   7 F= -.32958659E+03 E0= -.32958152E+03  d E =-.391713E-01
       N       E                     dE             d eps       ncg     rms          rms(c)
DAV:   1    -0.329609911505E+03   -0.23277E-01   -0.26184E+00 15152   0.635E+00    0.141E+00
DAV:   2    -0.329615164968E+03   -0.52535E-02   -0.30598E-01 22288   0.220E+00    0.853E-01
DAV:   3    -0.329617648765E+03   -0.24838E-02   -0.20711E-01 22336   0.146E+00    0.907E-01
DAV:   4    -0.329606201193E+03    0.11448E-01   -0.98326E-02 22064   0.100E+00    0.431E-01
DAV:   5    -0.329603005226E+03    0.31960E-02   -0.31603E-02 22520   0.589E-01    0.223E-01
DAV:   6    -0.329602221577E+03    0.78365E-03   -0.88583E-03 23512   0.303E-01    0.121E-01
DAV:   7    -0.329602292818E+03   -0.71241E-04   -0.22759E-03 21160   0.151E-01    0.940E-02
DAV:   8    -0.329602288159E+03    0.46591E-05   -0.97602E-04 18016   0.103E-01
   8 F= -.32960229E+03 E0= -.32959725E+03  d E =-.157008E-01
       N       E                     dE             d eps       ncg     rms          rms(c)
DAV:   1    -0.329603978239E+03   -0.16854E-02   -0.35014E-01 15344   0.232E+00    0.499E-01
DAV:   2    -0.329604571078E+03   -0.59284E-03   -0.38083E-02 21624   0.801E-01    0.289E-01
DAV:   3    -0.329605103361E+03   -0.53228E-03   -0.26350E-02 22344   0.521E-01    0.317E-01
DAV:   4    -0.329603587439E+03    0.15159E-02   -0.12320E-02 21800   0.353E-01    0.145E-01
DAV:   5    -0.329603287496E+03    0.29994E-03   -0.38958E-03 21224   0.203E-01    0.869E-02
DAV:   6    -0.329603206530E+03    0.80966E-04   -0.10457E-03 18784   0.104E-01    0.499E-02
DAV:   7    -0.329603229716E+03   -0.23186E-04   -0.22008E-04 10904   0.625E-02
   9 F= -.32960323E+03 E0= -.32959820E+03  d E =-.166424E-01
       N       E                     dE             d eps       ncg     rms          rms(c)
DAV:   1    -0.329607914144E+03   -0.47076E-02   -0.48035E-01 16128   0.217E+00    0.169E-01
DAV:   2    -0.329609708416E+03   -0.17943E-02   -0.22519E-02 24624   0.637E-01    0.203E-01
DAV:   3    -0.329609362591E+03    0.34583E-03   -0.63867E-03 22992   0.232E-01    0.124E-01
DAV:   4    -0.329609225761E+03    0.13683E-03   -0.87570E-04 16960   0.107E-01    0.854E-02
DAV:   5    -0.329609207293E+03    0.18467E-04   -0.64048E-04 15656   0.875E-02
  10 F= -.32960921E+03 E0= -.32960436E+03  d E =-.597758E-02
       N       E                     dE             d eps       ncg     rms          rms(c)
DAV:   1    -0.329608089496E+03    0.11363E-02   -0.43146E+00 16128   0.649E+00    0.525E-01
DAV:   2    -0.329624060699E+03   -0.15971E-01   -0.19864E-01 24744   0.189E+00    0.579E-01
DAV:   3    -0.329621498161E+03    0.25625E-02   -0.58309E-02 23904   0.698E-01    0.364E-01
DAV:   4    -0.329620057497E+03    0.14407E-02   -0.93826E-03 23392   0.333E-01    0.229E-01
DAV:   5    -0.329619856069E+03    0.20143E-03   -0.59391E-03 21456   0.231E-01    0.191E-01
DAV:   6    -0.329619451870E+03    0.40420E-03   -0.36282E-03 21784   0.195E-01    0.936E-02
DAV:   7    -0.329619272962E+03    0.17891E-03   -0.92286E-04 18272   0.106E-01    0.378E-02
DAV:   8    -0.329619261384E+03    0.11578E-04   -0.21523E-04 10744   0.710E-02
  11 F= -.32961926E+03 E0= -.32961515E+03  d E =-.160317E-01
       N       E                     dE             d eps       ncg     rms          rms(c)
DAV:   1    -0.329621501462E+03   -0.22285E-02   -0.26420E-01 15168   0.188E+00    0.367E-01
DAV:   2    -0.329621959047E+03   -0.45758E-03   -0.22332E-02 21320   0.580E-01    0.195E-01
DAV:   3    -0.329622331312E+03   -0.37227E-03   -0.11223E-02 22176   0.369E-01    0.220E-01
DAV:   4    -0.329621555005E+03    0.77631E-03   -0.57781E-03 20296   0.250E-01    0.988E-02
DAV:   5    -0.329621403475E+03    0.15153E-03   -0.17640E-03 19240   0.143E-01    0.604E-02
DAV:   6    -0.329621348899E+03    0.54576E-04   -0.61181E-04 15328   0.849E-02
  12 F= -.32962135E+03 E0= -.32961731E+03  d E =-.208751E-02
       N       E                     dE             d eps       ncg     rms          rms(c)
DAV:   1    -0.329621747608E+03   -0.34413E-03   -0.12390E-01 15224   0.130E+00    0.249E-01
DAV:   2    -0.329621922021E+03   -0.17441E-03   -0.97489E-03 20464   0.385E-01    0.121E-01
DAV:   3    -0.329622045449E+03   -0.12343E-03   -0.41663E-03 21048   0.230E-01    0.127E-01
DAV:   4    -0.329621789361E+03    0.25609E-03   -0.22691E-03 19960   0.159E-01    0.640E-02
DAV:   5    -0.329621721460E+03    0.67901E-04   -0.65051E-04 15048   0.918E-02
  13 F= -.32962172E+03 E0= -.32961772E+03  d E =-.246008E-02
       N       E                     dE             d eps       ncg     rms          rms(c)
DAV:   1    -0.329623205077E+03   -0.14157E-02   -0.12836E-01 15168   0.127E+00    0.241E-01
DAV:   2    -0.329623685056E+03   -0.47998E-03   -0.12326E-02 22224   0.426E-01    0.180E-01
DAV:   3    -0.329623554569E+03    0.13049E-03   -0.70455E-03 21920   0.267E-01    0.150E-01
DAV:   4    -0.329623308103E+03    0.24647E-03   -0.24397E-03 19848   0.164E-01    0.888E-02
DAV:   5    -0.329623194637E+03    0.11347E-03   -0.11774E-03 17368   0.116E-01    0.455E-02
DAV:   6    -0.329623151986E+03    0.42651E-04   -0.25538E-04 11168   0.693E-02
  14 F= -.32962315E+03 E0= -.32961921E+03  d E =-.143053E-02
       N       E                     dE             d eps       ncg     rms          rms(c)
DAV:   1    -0.329624079584E+03   -0.88495E-03   -0.38333E-01 15120   0.220E+00    0.402E-01
DAV:   2    -0.329625605221E+03   -0.15256E-02   -0.35751E-02 21736   0.739E-01    0.309E-01
DAV:   3    -0.329625036335E+03    0.56889E-03   -0.21334E-02 22104   0.456E-01    0.240E-01
DAV:   4    -0.329624427167E+03    0.60917E-03   -0.73119E-03 20856   0.279E-01    0.145E-01
DAV:   5    -0.329624060509E+03    0.36666E-03   -0.33659E-03 21208   0.188E-01    0.625E-02
DAV:   6    -0.329623990233E+03    0.70276E-04   -0.58612E-04 14888   0.889E-02
  15 F= -.32962399E+03 E0= -.32962012E+03  d E =-.226877E-02
       N       E                     dE             d eps       ncg     rms          rms(c)
DAV:   1    -0.329624733193E+03   -0.67268E-03   -0.12922E-01 16200   0.109E+00    0.990E-02
DAV:   2    -0.329625248574E+03   -0.51538E-03   -0.58891E-03 25200   0.316E-01    0.128E-01
DAV:   3    -0.329625066439E+03    0.18214E-03   -0.21347E-03 19288   0.141E-01    0.760E-02
DAV:   4    -0.329625018892E+03    0.47547E-04   -0.18531E-04 11168   0.585E-02
  16 F= -.32962502E+03 E0= -.32962118E+03  d E =-.102866E-02
       N       E                     dE             d eps       ncg     rms          rms(c)
DAV:   1    -0.329624019845E+03    0.10466E-02   -0.11583E+00 16128   0.327E+00    0.300E-01
DAV:   2    -0.329627121507E+03   -0.31017E-02   -0.40912E-02 24944   0.866E-01    0.245E-01
DAV:   3    -0.329627258837E+03   -0.13733E-03   -0.10489E-02 23808   0.306E-01    0.221E-01
DAV:   4    -0.329626651423E+03    0.60741E-03   -0.32528E-03 20656   0.180E-01    0.125E-01
DAV:   5    -0.329626642029E+03    0.93940E-05   -0.10545E-03 17768   0.111E-01    0.984E-02
DAV:   6    -0.329626524969E+03    0.11706E-03   -0.13333E-03 17928   0.123E-01    0.540E-02
DAV:   7    -0.329626461674E+03    0.63295E-04   -0.34268E-04 12808   0.762E-02
  17 F= -.32962646E+03 E0= -.32962274E+03  d E =-.247144E-02
       N       E                     dE             d eps       ncg     rms          rms(c)
DAV:   1    -0.329627065142E+03   -0.54017E-03   -0.15837E-01 16168   0.132E+00    0.122E-01
DAV:   2    -0.329627642775E+03   -0.57763E-03   -0.82111E-03 24472   0.368E-01    0.979E-02
DAV:   3    -0.329627648589E+03   -0.58142E-05   -0.13576E-03 20248   0.118E-01    0.835E-02
DAV:   4    -0.329627569164E+03    0.79425E-04   -0.46957E-04 13944   0.797E-02
  18 F= -.32962757E+03 E0= -.32962384E+03  d E =-.110749E-02
       N       E                     dE             d eps       ncg     rms          rms(c)
DAV:   1    -0.329625928652E+03    0.17199E-02   -0.71853E-01 16120   0.281E+00    0.262E-01
DAV:   2    -0.329628656127E+03   -0.27275E-02   -0.37850E-02 24400   0.789E-01    0.232E-01
DAV:   3    -0.329628639049E+03    0.17078E-04   -0.85531E-03 23552   0.283E-01    0.194E-01
DAV:   4    -0.329628176650E+03    0.46240E-03   -0.25773E-03 20744   0.168E-01    0.109E-01
DAV:   5    -0.329628170978E+03    0.56721E-05   -0.10975E-03 18784   0.112E-01    0.822E-02
DAV:   6    -0.329628095741E+03    0.75237E-04   -0.10463E-03 17984   0.108E-01    0.387E-02
DAV:   7    -0.329628070675E+03    0.25065E-04   -0.19953E-04 10640   0.656E-02
  19 F= -.32962807E+03 E0= -.32962432E+03  d E =-.160900E-02
       N       E                     dE             d eps       ncg     rms          rms(c)
DAV:   1    -0.329632194604E+03   -0.40989E-02   -0.25908E-01 20544   0.232E+00    0.676E-01
DAV:   2    -0.329632166674E+03    0.27930E-04   -0.61470E-02 25792   0.104E+00    0.484E-01
DAV:   3    -0.329630386256E+03    0.17804E-02   -0.51486E-02 23072   0.678E-01    0.367E-01
DAV:   4    -0.329628804610E+03    0.15816E-02   -0.17536E-02 23832   0.418E-01    0.217E-01
DAV:   5    -0.329628229343E+03    0.57527E-03   -0.84805E-03 22576   0.289E-01    0.141E-01
DAV:   6    -0.329627890853E+03    0.33849E-03   -0.24997E-03 20520   0.162E-01    0.695E-02
DAV:   7    -0.329627916333E+03   -0.25479E-04   -0.69850E-04 16648   0.806E-02
  20 F= -.32962792E+03 E0= -.32962424E+03  d E =0.154342E-03
       N       E                     dE             d eps       ncg     rms          rms(c)
DAV:   1    -0.329629672831E+03   -0.17820E-02   -0.71733E-02 20592   0.122E+00    0.366E-01
DAV:   2    -0.329629848483E+03   -0.17565E-03   -0.20213E-02 25792   0.576E-01    0.270E-01
DAV:   3    -0.329629146269E+03    0.70221E-03   -0.15589E-02 21480   0.376E-01    0.197E-01
DAV:   4    -0.329628768666E+03    0.37760E-03   -0.49609E-03 21392   0.227E-01    0.130E-01
DAV:   5    -0.329628556350E+03    0.21232E-03   -0.28274E-03 19536   0.165E-01    0.784E-02
DAV:   6    -0.329628439506E+03    0.11684E-03   -0.89057E-04 17056   0.100E-01    0.321E-02
DAV:   7    -0.329628445021E+03   -0.55154E-05   -0.20503E-04  9816   0.625E-02
  21 F= -.32962845E+03 E0= -.32962475E+03  d E =-.374346E-03
