<?xml version="1.0" encoding="ISO-8859-1"?>
<modeling>
 <generator>
  <i name="program" type="string">vasp </i>
  <i name="version" type="string">5.4.4.18Apr17-6-g9f103f2a35  </i>
  <i name="subversion" type="string">(build Aug 09 2018 16:20:53) complex            parallel </i>
  <i name="platform" type="string">LinuxIFC </i>
  <i name="date" type="string">2020 04 13 </i>
  <i name="time" type="string">19:52:10 </i>
 </generator>
 <incar>
  <i type="string" name="SYSTEM"> SQS with 1 vacancy for VFE and VRV</i>
  <i type="string" name="PREC">normal</i>
  <i type="int" name="IALGO">    38</i>
  <i type="int" name="ICHARG">     2</i>
  <i type="int" name="IBRION">     2</i>
  <i type="int" name="NSW">    50</i>
  <i type="int" name="ISIF">     3</i>
  <i type="int" name="ISYM">     0</i>
  <i name="ENCUT">    600.00000000</i>
  <i type="string" name="LREAL"> Auto</i>
  <i type="int" name="ISMEAR">     1</i>
  <i name="SIGMA">      0.20000000</i>
  <v type="int" name="KPOINT_BSE">    -1     0     0     0</v>
  <i type="string" name="GGA"> PS</i>
 </incar>
 <structure name="primitive_cell" >
  <crystal>
   <varray name="basis" >
    <v>      -3.19000000      -3.19000000      -3.19000000 </v>
    <v>       1.59500000       1.59500000      -7.97500000 </v>
    <v>       7.97500000      -7.97500000      -1.59500000 </v>
   </varray>
   <i name="volume">    486.92638500 </i>
   <varray name="rec_basis" >
    <v>      -0.13584117      -0.12539185      -0.05224660 </v>
    <v>       0.04179728       0.06269592      -0.10449321 </v>
    <v>       0.06269592      -0.06269592       0.00000000 </v>
   </varray>
  </crystal>
  <varray name="positions" >
   <v>      -0.03333333      -0.06666667       0.40000000 </v>
   <v>       0.30000000      -0.40000000       0.40000000 </v>
   <v>      -0.10000000      -0.20000000       0.20000000 </v>
   <v>       0.06666667       0.13333333       0.20000000 </v>
   <v>       0.46666667      -0.06666667       0.40000000 </v>
   <v>      -0.13333333      -0.26666667      -0.40000000 </v>
   <v>       0.03333333       0.06666667      -0.40000000 </v>
   <v>      -0.36666667       0.26666667       0.40000000 </v>
   <v>       0.40000000      -0.20000000       0.20000000 </v>
   <v>      -0.20000000      -0.40000000       0.40000000 </v>
   <v>      -0.43333333       0.13333333       0.20000000 </v>
   <v>       0.36666667      -0.26666667      -0.40000000 </v>
   <v>       0.13333333       0.26666667       0.40000000 </v>
   <v>      -0.46666667       0.06666667      -0.40000000 </v>
   <v>       0.23333333       0.46666667       0.20000000 </v>
   <v>       0.20000000       0.40000000      -0.40000000 </v>
   <v>       0.00000000       0.00000000       0.00000000 </v>
   <v>      -0.06666667      -0.13333333      -0.20000000 </v>
   <v>      -0.30000000       0.40000000      -0.40000000 </v>
   <v>      -0.26666667       0.46666667       0.20000000 </v>
   <v>       0.43333333      -0.13333333      -0.20000000 </v>
   <v>      -0.50000000       0.00000000       0.00000000 </v>
   <v>       0.26666667      -0.46666667      -0.20000000 </v>
   <v>      -0.33333333       0.33333333       0.00000000 </v>
   <v>      -0.40000000       0.20000000      -0.20000000 </v>
   <v>      -0.16666667      -0.33333333       0.00000000 </v>
   <v>      -0.23333333      -0.46666667      -0.20000000 </v>
   <v>       0.16666667       0.33333333       0.00000000 </v>
   <v>       0.10000000       0.20000000      -0.20000000 </v>
  </varray>
 </structure>
 <varray name="primitive_index" >
  <v type="int" >        1 </v>
  <v type="int" >       18 </v>
  <v type="int" >        7 </v>
  <v type="int" >       24 </v>
  <v type="int" >       20 </v>
  <v type="int" >       19 </v>
  <v type="int" >        6 </v>
  <v type="int" >        2 </v>
  <v type="int" >       16 </v>
  <v type="int" >        8 </v>
  <v type="int" >       15 </v>
  <v type="int" >       11 </v>
  <v type="int" >       12 </v>
  <v type="int" >       28 </v>
  <v type="int" >       29 </v>
  <v type="int" >       23 </v>
  <v type="int" >        4 </v>
  <v type="int" >       14 </v>
  <v type="int" >       26 </v>
  <v type="int" >        9 </v>
  <v type="int" >       17 </v>
  <v type="int" >        3 </v>
  <v type="int" >       22 </v>
  <v type="int" >       10 </v>
  <v type="int" >       27 </v>
  <v type="int" >       13 </v>
  <v type="int" >       25 </v>
  <v type="int" >       21 </v>
  <v type="int" >        5 </v>
 </varray>
 <kpoints>
  <generation param="Gamma">
   <v type="int" name="divisions">       5        5        5 </v>
   <v name="usershift">      0.00000000       0.00000000       0.00000000 </v>
   <v name="genvec1">      0.20000000      -0.00000000      -0.00000000 </v>
   <v name="genvec2">      0.00000000       0.20000000       0.00000000 </v>
   <v name="genvec3">      0.00000000       0.00000000       0.20000000 </v>
   <v name="shift">      0.00000000       0.00000000       0.00000000 </v>
  </generation>
  <varray name="kpointlist" >
   <v>       0.00000000       0.00000000       0.00000000 </v>
   <v>       0.20000000      -0.00000000       0.00000000 </v>
   <v>       0.40000000      -0.00000000       0.00000000 </v>
   <v>       0.00000000       0.20000000       0.00000000 </v>
   <v>       0.20000000       0.20000000      -0.00000000 </v>
   <v>       0.40000000       0.20000000      -0.00000000 </v>
   <v>      -0.40000000       0.20000000      -0.00000000 </v>
   <v>      -0.20000000       0.20000000       0.00000000 </v>
   <v>       0.00000000       0.40000000       0.00000000 </v>
   <v>       0.20000000       0.40000000       0.00000000 </v>
   <v>       0.40000000       0.40000000      -0.00000000 </v>
   <v>      -0.40000000       0.40000000       0.00000000 </v>
   <v>      -0.20000000       0.40000000       0.00000000 </v>
   <v>       0.00000000       0.00000000       0.20000000 </v>
   <v>       0.20000000      -0.00000000       0.20000000 </v>
   <v>       0.40000000       0.00000000       0.20000000 </v>
   <v>      -0.40000000       0.00000000       0.20000000 </v>
   <v>      -0.20000000       0.00000000       0.20000000 </v>
   <v>       0.00000000       0.20000000       0.20000000 </v>
   <v>       0.20000000       0.20000000       0.20000000 </v>
   <v>       0.40000000       0.20000000       0.20000000 </v>
   <v>      -0.40000000       0.20000000       0.20000000 </v>
   <v>      -0.20000000       0.20000000       0.20000000 </v>
   <v>       0.00000000       0.40000000       0.20000000 </v>
   <v>       0.20000000       0.40000000       0.20000000 </v>
   <v>       0.40000000       0.40000000       0.20000000 </v>
   <v>      -0.40000000       0.40000000       0.20000000 </v>
   <v>      -0.20000000       0.40000000       0.20000000 </v>
   <v>       0.00000000      -0.40000000       0.20000000 </v>
   <v>       0.20000000      -0.40000000       0.20000000 </v>
   <v>       0.40000000      -0.40000000       0.20000000 </v>
   <v>      -0.40000000      -0.40000000       0.20000000 </v>
   <v>      -0.20000000      -0.40000000       0.20000000 </v>
   <v>       0.00000000      -0.20000000       0.20000000 </v>
   <v>       0.20000000      -0.20000000       0.20000000 </v>
   <v>       0.40000000      -0.20000000       0.20000000 </v>
   <v>      -0.40000000      -0.20000000       0.20000000 </v>
   <v>      -0.20000000      -0.20000000       0.20000000 </v>
   <v>       0.00000000       0.00000000       0.40000000 </v>
   <v>       0.20000000      -0.00000000       0.40000000 </v>
   <v>       0.40000000      -0.00000000       0.40000000 </v>
   <v>      -0.40000000       0.00000000       0.40000000 </v>
   <v>      -0.20000000       0.00000000       0.40000000 </v>
   <v>      -0.00000000       0.20000000       0.40000000 </v>
   <v>       0.20000000       0.20000000       0.40000000 </v>
   <v>       0.40000000       0.20000000       0.40000000 </v>
   <v>      -0.40000000       0.20000000       0.40000000 </v>
   <v>      -0.20000000       0.20000000       0.40000000 </v>
   <v>       0.00000000       0.40000000       0.40000000 </v>
   <v>       0.20000000       0.40000000       0.40000000 </v>
   <v>       0.40000000       0.40000000       0.40000000 </v>
   <v>      -0.40000000       0.40000000       0.40000000 </v>
   <v>      -0.20000000       0.40000000       0.40000000 </v>
   <v>       0.00000000      -0.40000000       0.40000000 </v>
   <v>       0.20000000      -0.40000000       0.40000000 </v>
   <v>       0.40000000      -0.40000000       0.40000000 </v>
   <v>      -0.40000000      -0.40000000       0.40000000 </v>
   <v>      -0.20000000      -0.40000000       0.40000000 </v>
   <v>       0.00000000      -0.20000000       0.40000000 </v>
   <v>       0.20000000      -0.20000000       0.40000000 </v>
   <v>       0.40000000      -0.20000000       0.40000000 </v>
   <v>      -0.40000000      -0.20000000       0.40000000 </v>
   <v>      -0.20000000      -0.20000000       0.40000000 </v>
  </varray>
  <varray name="weights" >
   <v>       0.00800000 </v>
   <v>       0.01600000 </v>
   <v>       0.01600000 </v>
   <v>       0.01600000 </v>
   <v>       0.01600000 </v>
   <v>       0.01600000 </v>
   <v>       0.01600000 </v>
   <v>       0.01600000 </v>
   <v>       0.01600000 </v>
   <v>       0.01600000 </v>
   <v>       0.01600000 </v>
   <v>       0.01600000 </v>
   <v>       0.01600000 </v>
   <v>       0.01600000 </v>
   <v>       0.01600000 </v>
   <v>       0.01600000 </v>
   <v>       0.01600000 </v>
   <v>       0.01600000 </v>
   <v>       0.01600000 </v>
   <v>       0.01600000 </v>
   <v>       0.01600000 </v>
   <v>       0.01600000 </v>
   <v>       0.01600000 </v>
   <v>       0.01600000 </v>
   <v>       0.01600000 </v>
   <v>       0.01600000 </v>
   <v>       0.01600000 </v>
   <v>       0.01600000 </v>
   <v>       0.01600000 </v>
   <v>       0.01600000 </v>
   <v>       0.01600000 </v>
   <v>       0.01600000 </v>
   <v>       0.01600000 </v>
   <v>       0.01600000 </v>
   <v>       0.01600000 </v>
   <v>       0.01600000 </v>
   <v>       0.01600000 </v>
   <v>       0.01600000 </v>
   <v>       0.01600000 </v>
   <v>       0.01600000 </v>
   <v>       0.01600000 </v>
   <v>       0.01600000 </v>
   <v>       0.01600000 </v>
   <v>       0.01600000 </v>
   <v>       0.01600000 </v>
   <v>       0.01600000 </v>
   <v>       0.01600000 </v>
   <v>       0.01600000 </v>
   <v>       0.01600000 </v>
   <v>       0.01600000 </v>
   <v>       0.01600000 </v>
   <v>       0.01600000 </v>
   <v>       0.01600000 </v>
   <v>       0.01600000 </v>
   <v>       0.01600000 </v>
   <v>       0.01600000 </v>
   <v>       0.01600000 </v>
   <v>       0.01600000 </v>
   <v>       0.01600000 </v>
   <v>       0.01600000 </v>
   <v>       0.01600000 </v>
   <v>       0.01600000 </v>
   <v>       0.01600000 </v>
  </varray>
 </kpoints>
 <parameters>
  <separator name="general" >
   <i type="string" name="SYSTEM">SQS with 1 vacancy for VFE and VRV</i>
   <i type="logical" name="LCOMPAT"> F  </i>
  </separator>
  <separator name="electronic" >
   <i type="string" name="PREC">normal</i>
   <i name="ENMAX">    600.00000000</i>
   <i name="ENAUG">    455.65900000</i>
   <i name="EDIFF">      0.00010000</i>
   <i type="int" name="IALGO">    38</i>
   <i type="int" name="IWAVPR">    11</i>
   <i type="int" name="NBANDS">   120</i>
   <i name="NELECT">    198.00000000</i>
   <i type="int" name="TURBO">     0</i>
   <i type="int" name="IRESTART">     0</i>
   <i type="int" name="NREBOOT">     0</i>
   <i type="int" name="NMIN">     0</i>
   <i name="EREF">      0.00000000</i>
   <separator name="electronic smearing" >
    <i type="int" name="ISMEAR">     1</i>
    <i name="SIGMA">      0.20000000</i>
    <i name="KSPACING">      0.50000000</i>
    <i type="logical" name="KGAMMA"> T  </i>
   </separator>
   <separator name="electronic projectors" >
    <i type="logical" name="LREAL"> T  </i>
    <v name="ROPT">     -0.00050000     -0.00050000     -0.00050000     -0.00050000     -0.00050000</v>
    <i type="int" name="LMAXPAW">  -100</i>
    <i type="int" name="LMAXMIX">     2</i>
    <i type="logical" name="NLSPLINE"> F  </i>
   </separator>
   <separator name="electronic startup" >
    <i type="int" name="ISTART">     0</i>
    <i type="int" name="ICHARG">     2</i>
    <i type="int" name="INIWAV">     1</i>
   </separator>
   <separator name="electronic spin" >
    <i type="int" name="ISPIN">     1</i>
    <i type="logical" name="LNONCOLLINEAR"> F  </i>
    <v name="MAGMOM">      1.00000000      1.00000000      1.00000000      1.00000000      1.00000000      1.00000000      1.00000000      1.00000000      1.00000000      1.00000000      1.00000000      1.00000000      1.00000000      1.00000000      1.00000000      1.00000000      1.00000000      1.00000000      1.00000000      1.00000000
      1.00000000      1.00000000      1.00000000      1.00000000      1.00000000      1.00000000      1.00000000      1.00000000      1.00000000</v>
    <i name="NUPDOWN">     -1.00000000</i>
    <i type="logical" name="LSORBIT"> F  </i>
    <v name="SAXIS">      0.00000000      0.00000000      1.00000000</v>
    <i type="logical" name="LSPIRAL"> F  </i>
    <v name="QSPIRAL">      0.00000000      0.00000000      0.00000000</v>
    <i type="logical" name="LZEROZ"> F  </i>
   </separator>
   <separator name="electronic exchange-correlation" >
    <i type="logical" name="LASPH"> F  </i>
    <i type="logical" name="LMETAGGA"> F  </i>
   </separator>
   <separator name="electronic convergence" >
    <i type="int" name="NELM">    60</i>
    <i type="int" name="NELMDL">    -5</i>
    <i type="int" name="NELMIN">     2</i>
    <i name="ENINI">    600.00000000</i>
    <separator name="electronic convergence detail" >
     <i type="logical" name="LDIAG"> T  </i>
     <i type="logical" name="LSUBROT"> F  </i>
     <i name="WEIMIN">      0.00100000</i>
     <i name="EBREAK">      0.00000021</i>
     <i name="DEPER">      0.30000000</i>
     <i type="int" name="NRMM">     4</i>
     <i name="TIME">      0.40000000</i>
    </separator>
   </separator>
   <separator name="electronic mixer" >
    <i name="AMIX">      0.40000000</i>
    <i name="BMIX">      1.00000000</i>
    <i name="AMIN">      0.10000000</i>
    <i name="AMIX_MAG">      1.60000000</i>
    <i name="BMIX_MAG">      1.00000000</i>
    <separator name="electronic mixer details" >
     <i type="int" name="IMIX">     4</i>
     <i type="logical" name="MIXFIRST"> F  </i>
     <i type="int" name="MAXMIX">   -45</i>
     <i name="WC">    100.00000000</i>
     <i type="int" name="INIMIX">     1</i>
     <i type="int" name="MIXPRE">     1</i>
     <i type="int" name="MREMOVE">     5</i>
    </separator>
   </separator>
   <separator name="electronic dipolcorrection" >
    <i type="logical" name="LDIPOL"> F  </i>
    <i type="logical" name="LMONO"> F  </i>
    <i type="int" name="IDIPOL">     0</i>
    <i name="EPSILON">      1.00000000</i>
    <v name="DIPOL">   -100.00000000   -100.00000000   -100.00000000</v>
    <i name="EFIELD">      0.00000000</i>
   </separator>
  </separator>
  <separator name="grids" >
   <i type="int" name="NGX">    36</i>
   <i type="int" name="NGY">    50</i>
   <i type="int" name="NGZ">    70</i>
   <i type="int" name="NGXF">    72</i>
   <i type="int" name="NGYF">   100</i>
   <i type="int" name="NGZF">   140</i>
   <i type="logical" name="ADDGRID"> F  </i>
  </separator>
  <separator name="ionic" >
   <i type="int" name="NSW">    50</i>
   <i type="int" name="IBRION">     2</i>
   <i type="int" name="MDALGO">     0</i>
   <i type="int" name="ISIF">     3</i>
   <i name="PSTRESS">      0.00000000</i>
   <i name="EDIFFG">      0.00100000</i>
   <i type="int" name="NFREE">     1</i>
   <i name="POTIM">      0.50000000</i>
   <i name="SMASS">     -3.00000000</i>
   <i name="SCALEE">      1.00000000</i>
  </separator>
  <separator name="ionic md" >
   <i name="TEBEG">      0.00010000</i>
   <i name="TEEND">      0.00010000</i>
   <i type="int" name="NBLOCK">     1</i>
   <i type="int" name="KBLOCK">    50</i>
   <i type="int" name="NPACO">   256</i>
   <i name="APACO">     16.00000000</i>
  </separator>
  <separator name="symmetry" >
   <i type="int" name="ISYM">     0</i>
   <i name="SYMPREC">      0.00001000</i>
  </separator>
  <separator name="dos" >
   <i type="int" name="LORBIT">     0</i>
   <v name="RWIGS">     -1.00000000     -1.00000000     -1.00000000     -1.00000000     -1.00000000</v>
   <i type="int" name="NEDOS">   301</i>
   <i name="EMIN">     10.00000000</i>
   <i name="EMAX">    -10.00000000</i>
   <i name="EFERMI">      0.00000000</i>
  </separator>
  <separator name="writing" >
   <i type="int" name="NWRITE">     2</i>
   <i type="logical" name="LWAVE"> T  </i>
   <i type="logical" name="LDOWNSAMPLE"> F  </i>
   <i type="logical" name="LCHARG"> T  </i>
   <i type="logical" name="LPARD"> F  </i>
   <i type="logical" name="LVTOT"> F  </i>
   <i type="logical" name="LVHAR"> F  </i>
   <i type="logical" name="LELF"> F  </i>
   <i type="logical" name="LOPTICS"> F  </i>
   <v name="STM">      0.00000000      0.00000000      0.00000000      0.00000000      0.00000000      0.00000000      0.00000000</v>
  </separator>
  <separator name="performance" >
   <i type="int" name="NPAR">     8</i>
   <i type="int" name="NSIM">     4</i>
   <i type="int" name="NBLK">    -1</i>
   <i type="logical" name="LPLANE"> T  </i>
   <i type="logical" name="LSCALAPACK"> T  </i>
   <i type="logical" name="LSCAAWARE"> F  </i>
   <i type="logical" name="LSCALU"> F  </i>
   <i type="logical" name="LASYNC"> F  </i>
   <i type="logical" name="LORBITALREAL"> F  </i>
  </separator>
  <separator name="miscellaneous" >
   <i type="int" name="IDIOT">     3</i>
   <i type="int" name="ISPECIAL">     0</i>
   <i type="logical" name="LMUSIC"> F  </i>
   <v name="POMASS">     92.91000000     95.94000000    180.94800000     47.88000000    183.85000000</v>
   <v name="DARWINR">      0.00000000      0.00000000      0.00000000      0.00000000      0.00000000</v>
   <v name="DARWINV">      1.00000000      1.00000000      1.00000000      1.00000000      1.00000000</v>
   <i type="logical" name="LCORR"> T  </i>
  </separator>
  <i type="logical" name="GGA_COMPAT"> T  </i>
  <i type="logical" name="LBERRY"> F  </i>
  <i type="int" name="ICORELEVEL">     0</i>
  <i type="logical" name="LDAU"> F  </i>
  <i type="int" name="I_CONSTRAINED_M">     0</i>
  <separator name="electronic exchange-correlation" >
   <i type="string" name="GGA">PS</i>
   <i type="int" name="VOSKOWN">     0</i>
   <i type="logical" name="LHFCALC"> F  </i>
   <i type="string" name="PRECFOCK"></i>
   <i type="logical" name="LSYMGRAD"> F  </i>
   <i type="logical" name="LHFONE"> F  </i>
   <i type="logical" name="LRHFCALC"> F  </i>
   <i type="logical" name="LTHOMAS"> F  </i>
   <i type="logical" name="LMODELHF"> F  </i>
   <i name="ENCUT4O">     -1.00000000</i>
   <i type="int" name="EXXOEP">     0</i>
   <i type="int" name="FOURORBIT">     0</i>
   <i name="AEXX">      0.00000000</i>
   <i name="HFALPHA">      0.00000000</i>
   <i name="MCALPHA">      0.00000000</i>
   <i name="ALDAX">      1.00000000</i>
   <i name="AGGAX">      1.00000000</i>
   <i name="ALDAC">      1.00000000</i>
   <i name="AGGAC">      1.00000000</i>
   <i type="int" name="NKREDX">     1</i>
   <i type="int" name="NKREDY">     1</i>
   <i type="int" name="NKREDZ">     1</i>
   <i type="logical" name="SHIFTRED"> F  </i>
   <i type="logical" name="ODDONLY"> F  </i>
   <i type="logical" name="EVENONLY"> F  </i>
   <i type="int" name="LMAXFOCK">     0</i>
   <i type="int" name="NMAXFOCKAE">     0</i>
   <i type="logical" name="LFOCKAEDFT"> F  </i>
   <i name="HFSCREEN">      0.00000000</i>
   <i name="HFSCREENC">      0.00000000</i>
   <i type="int" name="NBANDSGWLOW">     0</i>
  </separator>
  <separator name="vdW DFT" >
   <i type="logical" name="LUSE_VDW"> F  </i>
   <i name="Zab_VDW">     -0.84910000</i>
   <i name="PARAM1">      0.12340000</i>
   <i name="PARAM2">      1.00000000</i>
   <i name="PARAM3">      0.00000000</i>
  </separator>
  <separator name="model GW" >
   <i type="int" name="MODEL_GW">     0</i>
   <i name="MODEL_EPS0">     10.07433900</i>
   <i name="MODEL_ALPHA">      1.00000000</i>
  </separator>
  <separator name="linear response parameters" >
   <i type="logical" name="LEPSILON"> F  </i>
   <i type="logical" name="LRPA"> F  </i>
   <i type="logical" name="LNABLA"> F  </i>
   <i type="logical" name="LVEL"> F  </i>
   <i type="int" name="KINTER">     0</i>
   <i name="CSHIFT">      0.10000000</i>
   <i name="OMEGAMAX">     -1.00000000</i>
   <i name="DEG_THRESHOLD">      0.00200000</i>
   <i name="RTIME">     -0.10000000</i>
   <i name="WPLASMAI">      0.00000000</i>
   <v name="DFIELD">      0.00000000      0.00000000      0.00000000</v>
   <v name="WPLASMA">      0.00000000      0.00000000      0.00000000      0.00000000      0.00000000      0.00000000      0.00000000      0.00000000      0.00000000</v>
  </separator>
  <separator name="orbital magnetization" >
   <i type="logical" name="NUCIND"> F  </i>
   <v name="MAGPOS">      0.00000000      0.00000000      0.00000000</v>
   <i type="logical" name="LNICSALL"> T  </i>
   <i type="logical" name="ORBITALMAG"> F  </i>
   <i type="logical" name="LMAGBLOCH"> F  </i>
   <i type="logical" name="LCHIMAG"> F  </i>
   <i type="logical" name="LGAUGE"> T  </i>
   <i type="int" name="MAGATOM">     0</i>
   <v name="MAGDIPOL">      0.00000000      0.00000000      0.00000000</v>
   <v name="AVECCONST">      0.00000000      0.00000000      0.00000000</v>
  </separator>
  <separator name="response functions" >
   <i type="logical" name="LADDER"> F  </i>
   <i type="logical" name="LRPAFORCE"> F  </i>
   <i type="logical" name="LFXC"> F  </i>
   <i type="logical" name="LHARTREE"> T  </i>
   <i type="int" name="IBSE">     0</i>
   <v type="int" name="KPOINT">    -1     0     0     0</v>
   <i type="logical" name="LTCTE"> F  </i>
   <i type="logical" name="LTETE"> F  </i>
   <i type="logical" name="LTRIPLET"> F  </i>
   <i type="logical" name="LFXCEPS"> F  </i>
   <i type="logical" name="LFXHEG"> F  </i>
   <i type="int" name="NATURALO">     2</i>
   <i type="logical" name="L2ORDER"> F  </i>
   <i type="logical" name="LMP2LT"> F  </i>
   <i type="logical" name="LUSEW"> F  </i>
   <i name="ENCUTGW">     -2.00000000</i>
   <i name="ENCUTGWSOFT">     -2.00000000</i>
   <i name="ENCUTLF">     -1.00000000</i>
   <i type="int" name="LMAXMP2">    -1</i>
   <i name="SCISSOR">      0.00000000</i>
   <i type="int" name="NOMEGA">     0</i>
   <i type="int" name="NOMEGAR">     0</i>
   <i type="int" name="NBANDSGW">    -1</i>
   <i type="int" name="NBANDSO">    -1</i>
   <i type="int" name="NBANDSV">    -1</i>
   <i type="int" name="NELM">     1</i>
   <i type="int" name="NELMHF">     1</i>
   <i type="int" name="DIM">     3</i>
   <i type="int" name="ANTIRES">     0</i>
   <i name="OMEGAMAX">    -30.00000000</i>
   <i name="OMEGAMIN">    -30.00000000</i>
   <i name="OMEGATL">   -200.00000000</i>
   <i type="int" name="OMEGAGRID">   140</i>
   <i name="CSHIFT">     -0.10000000</i>
   <i type="logical" name="SELFENERGY"> F  </i>
   <i type="logical" name="LSPECTRAL"> F  </i>
   <i type="logical" name="LSPECTRALGW"> F  </i>
   <i type="logical" name="LSINGLES"> F  </i>
   <i type="logical" name="LFERMIGW"> F  </i>
   <i type="logical" name="ODDONLYGW"> F  </i>
   <i type="logical" name="EVENONLYGW"> F  </i>
   <i type="int" name="NKREDLFX">     1</i>
   <i type="int" name="NKREDLFY">     1</i>
   <i type="int" name="NKREDLFZ">     1</i>
   <i type="int" name="MAXMEM">  2800</i>
   <i type="int" name="TELESCOPE">     0</i>
   <i type="int" name="TAUPAR">     1</i>
   <i type="int" name="OMEGAPAR">    -1</i>
   <i name="LAMBDA">      1.00000000</i>
  </separator>
  <separator name="External order field" >
   <i name="OFIELD_KAPPA">      0.00000000</i>
   <v name="OFIELD_K">      0.00000000      0.00000000      0.00000000</v>
   <i name="OFIELD_Q6_NEAR">      0.00000000</i>
   <i name="OFIELD_Q6_FAR">      0.00000000</i>
   <i name="OFIELD_A">      0.00000000</i>
  </separator>
  <separator name="solvation model" >
   <i type="logical" name="LSOL"> F  </i>
  </separator>
 </parameters>
 <atominfo>
  <atoms>      29 </atoms>
  <types>       5 </types>
  <array name="atoms" >
   <dimension dim="1">ion</dimension>
   <field type="string">element</field>
   <field type="int">atomtype</field>
   <set>
    <rc><c>Nb</c><c>   1</c></rc>
    <rc><c>Nb</c><c>   1</c></rc>
    <rc><c>Nb</c><c>   1</c></rc>
    <rc><c>Nb</c><c>   1</c></rc>
    <rc><c>Nb</c><c>   1</c></rc>
    <rc><c>Nb</c><c>   1</c></rc>
    <rc><c>Mo</c><c>   2</c></rc>
    <rc><c>Mo</c><c>   2</c></rc>
    <rc><c>Mo</c><c>   2</c></rc>
    <rc><c>Mo</c><c>   2</c></rc>
    <rc><c>Mo</c><c>   2</c></rc>
    <rc><c>Mo</c><c>   2</c></rc>
    <rc><c>Ta</c><c>   3</c></rc>
    <rc><c>Ta</c><c>   3</c></rc>
    <rc><c>Ta</c><c>   3</c></rc>
    <rc><c>Ta</c><c>   3</c></rc>
    <rc><c>Ta</c><c>   3</c></rc>
    <rc><c>Ta</c><c>   3</c></rc>
    <rc><c>Ti</c><c>   4</c></rc>
    <rc><c>Ti</c><c>   4</c></rc>
    <rc><c>Ti</c><c>   4</c></rc>
    <rc><c>Ti</c><c>   4</c></rc>
    <rc><c>Ti</c><c>   4</c></rc>
    <rc><c>Ti</c><c>   4</c></rc>
    <rc><c>W </c><c>   5</c></rc>
    <rc><c>W </c><c>   5</c></rc>
    <rc><c>W </c><c>   5</c></rc>
    <rc><c>W </c><c>   5</c></rc>
    <rc><c>W </c><c>   5</c></rc>
   </set>
  </array>
  <array name="atomtypes" >
   <dimension dim="1">type</dimension>
   <field type="int">atomspertype</field>
   <field type="string">element</field>
   <field>mass</field>
   <field>valence</field>
   <field type="string">pseudopotential</field>
   <set>
    <rc><c>   6</c><c>Nb</c><c>     92.91000000</c><c>     13.00000000</c><c>  PAW_PBE Nb_sv 25May2007               </c></rc>
    <rc><c>   6</c><c>Mo</c><c>     95.94000000</c><c>      6.00000000</c><c>  PAW_PBE Mo 08Apr2002                  </c></rc>
    <rc><c>   6</c><c>Ta</c><c>    180.94800000</c><c>      5.00000000</c><c>  PAW_PBE Ta 17Jan2003                  </c></rc>
    <rc><c>   6</c><c>Ti</c><c>     47.88000000</c><c>      4.00000000</c><c>  PAW_PBE Ti 08Apr2002                  </c></rc>
    <rc><c>   5</c><c>W </c><c>    183.85000000</c><c>      6.00000000</c><c>  PAW_PBE W 08Apr2002                   </c></rc>
   </set>
  </array>
 </atominfo>
 <structure name="initialpos" >
  <crystal>
   <varray name="basis" >
    <v>      -3.19000000      -3.19000000      -3.19000000 </v>
    <v>       1.59500000       1.59500000      -7.97500000 </v>
    <v>       7.97500000      -7.97500000      -1.59500000 </v>
   </varray>
   <i name="volume">    486.92638500 </i>
   <varray name="rec_basis" >
    <v>      -0.13584117      -0.12539185      -0.05224660 </v>
    <v>       0.04179728       0.06269592      -0.10449321 </v>
    <v>       0.06269592      -0.06269592       0.00000000 </v>
   </varray>
  </crystal>
  <varray name="positions" >
   <v>       0.96666667       0.93333333       0.40000000 </v>
   <v>       0.63333333       0.26666667       0.40000000 </v>
   <v>       0.50000000       0.00000000       0.00000000 </v>
   <v>       0.00000000       0.00000000       0.00000000 </v>
   <v>       0.10000000       0.20000000       0.80000000 </v>
   <v>       0.03333333       0.06666667       0.60000000 </v>
   <v>       0.90000000       0.80000000       0.20000000 </v>
   <v>       0.80000000       0.60000000       0.40000000 </v>
   <v>       0.73333333       0.46666667       0.20000000 </v>
   <v>       0.66666667       0.33333333       0.00000000 </v>
   <v>       0.36666667       0.73333333       0.60000000 </v>
   <v>       0.13333333       0.26666667       0.40000000 </v>
   <v>       0.83333333       0.66666667       0.00000000 </v>
   <v>       0.93333333       0.86666667       0.80000000 </v>
   <v>       0.56666667       0.13333333       0.20000000 </v>
   <v>       0.40000000       0.80000000       0.20000000 </v>
   <v>       0.43333333       0.86666667       0.80000000 </v>
   <v>       0.30000000       0.60000000       0.40000000 </v>
   <v>       0.86666667       0.73333333       0.60000000 </v>
   <v>       0.46666667       0.93333333       0.40000000 </v>
   <v>       0.16666667       0.33333333       0.00000000 </v>
   <v>       0.26666667       0.53333333       0.80000000 </v>
   <v>       0.20000000       0.40000000       0.60000000 </v>
   <v>       0.06666667       0.13333333       0.20000000 </v>
   <v>       0.76666667       0.53333333       0.80000000 </v>
   <v>       0.70000000       0.40000000       0.60000000 </v>
   <v>       0.60000000       0.20000000       0.80000000 </v>
   <v>       0.53333333       0.06666667       0.60000000 </v>
   <v>       0.23333333       0.46666667       0.20000000 </v>
  </varray>
 </structure>
 <calculation>
  <scstep>
   <time name="dav">   18.48   18.51</time>
   <time name="total">   18.52   18.56</time>
   <energy>
    <i name="alphaZ">   1291.39724513 </i>
    <i name="ewald"> -11415.41488243 </i>
    <i name="hartreedc">  -3256.61810115 </i>
    <i name="XCdc">   -857.17967776 </i>
    <i name="pawpsdc">  12063.15090526 </i>
    <i name="pawaedc"> -10557.55889498 </i>
    <i name="eentropy">      0.00252354 </i>
    <i name="bandstr">   1878.71847877 </i>
    <i name="atom">  13006.21773402 </i>
    <i name="e_fr_energy">   2152.71533041 </i>
    <i name="e_wo_entrp">   2152.71280686 </i>
    <i name="e_0_energy">   2152.71448923 </i>
   </energy>
  </scstep>
  <scstep>
   <time name="dav">   18.26   18.29</time>
   <time name="total">   18.27   18.30</time>
   <energy>
    <i name="e_fr_energy">     72.53963294 </i>
    <i name="e_wo_entrp">     72.53806056 </i>
    <i name="e_0_energy">     72.53910881 </i>
   </energy>
  </scstep>
  <scstep>
   <time name="dav">   28.64   28.69</time>
   <time name="total">   28.65   28.69</time>
   <energy>
    <i name="e_fr_energy">   -299.93747476 </i>
    <i name="e_wo_entrp">   -299.93526042 </i>
    <i name="e_0_energy">   -299.93673664 </i>
   </energy>
  </scstep>
  <scstep>
   <time name="dav">   25.86   25.90</time>
   <time name="total">   25.86   25.90</time>
   <energy>
    <i name="e_fr_energy">   -346.02893547 </i>
    <i name="e_wo_entrp">   -346.03343639 </i>
    <i name="e_0_energy">   -346.03043577 </i>
   </energy>
  </scstep>
  <scstep>
   <time name="dav">   30.94   30.99</time>
   <time name="total">   31.53   31.58</time>
   <energy>
    <i name="e_fr_energy">   -351.08163053 </i>
    <i name="e_wo_entrp">   -351.08999182 </i>
    <i name="e_0_energy">   -351.08441763 </i>
   </energy>
  </scstep>
  <scstep>
   <time name="dav">   23.42   23.46</time>
   <time name="total">   24.04   24.07</time>
   <energy>
    <i name="e_fr_energy">   -341.45469420 </i>
    <i name="e_wo_entrp">   -341.44678483 </i>
    <i name="e_0_energy">   -341.45205774 </i>
   </energy>
  </scstep>
  <scstep>
   <time name="dav">   24.49   24.53</time>
   <time name="total">   25.11   25.15</time>
   <energy>
    <i name="e_fr_energy">   -356.10632797 </i>
    <i name="e_wo_entrp">   -356.11907488 </i>
    <i name="e_0_energy">   -356.11057694 </i>
   </energy>
  </scstep>
  <scstep>
   <time name="dav">   25.11   25.14</time>
   <time name="total">   25.73   25.77</time>
   <energy>
    <i name="e_fr_energy">   -344.05747044 </i>
    <i name="e_wo_entrp">   -344.05540269 </i>
    <i name="e_0_energy">   -344.05678119 </i>
   </energy>
  </scstep>
  <scstep>
   <time name="dav">   23.67   23.70</time>
   <time name="total">   24.29   24.32</time>
   <energy>
    <i name="e_fr_energy">   -334.06509490 </i>
    <i name="e_wo_entrp">   -334.07365592 </i>
    <i name="e_0_energy">   -334.06794857 </i>
   </energy>
  </scstep>
  <scstep>
   <time name="dav">   24.52   24.55</time>
   <time name="total">   25.14   25.17</time>
   <energy>
    <i name="e_fr_energy">   -330.56013556 </i>
    <i name="e_wo_entrp">   -330.56314148 </i>
    <i name="e_0_energy">   -330.56113754 </i>
   </energy>
  </scstep>
  <scstep>
   <time name="dav">   25.29   25.32</time>
   <time name="total">   25.91   25.95</time>
   <energy>
    <i name="e_fr_energy">   -329.27979688 </i>
    <i name="e_wo_entrp">   -329.26437643 </i>
    <i name="e_0_energy">   -329.27465673 </i>
   </energy>
  </scstep>
  <scstep>
   <time name="dav">   25.65   25.68</time>
   <time name="total">   26.26   26.30</time>
   <energy>
    <i name="e_fr_energy">   -329.04189832 </i>
    <i name="e_wo_entrp">   -329.02695409 </i>
    <i name="e_0_energy">   -329.03691691 </i>
   </energy>
  </scstep>
  <scstep>
   <time name="dav">   24.84   24.87</time>
   <time name="total">   25.46   25.50</time>
   <energy>
    <i name="e_fr_energy">   -328.95748140 </i>
    <i name="e_wo_entrp">   -328.93877550 </i>
    <i name="e_0_energy">   -328.95124610 </i>
   </energy>
  </scstep>
  <scstep>
   <time name="dav">   25.20   25.24</time>
   <time name="total">   25.82   25.86</time>
   <energy>
    <i name="e_fr_energy">   -328.87372929 </i>
    <i name="e_wo_entrp">   -328.85294894 </i>
    <i name="e_0_energy">   -328.86680251 </i>
   </energy>
  </scstep>
  <scstep>
   <time name="dav">   25.54   25.57</time>
   <time name="total">   26.16   26.19</time>
   <energy>
    <i name="e_fr_energy">   -328.87532787 </i>
    <i name="e_wo_entrp">   -328.85324287 </i>
    <i name="e_0_energy">   -328.86796620 </i>
   </energy>
  </scstep>
  <scstep>
   <time name="dav">   25.20   25.23</time>
   <time name="total">   25.82   25.86</time>
   <energy>
    <i name="e_fr_energy">   -328.86501448 </i>
    <i name="e_wo_entrp">   -328.84328975 </i>
    <i name="e_0_energy">   -328.85777290 </i>
   </energy>
  </scstep>
  <scstep>
   <time name="dav">   24.43   24.49</time>
   <time name="total">   25.06   25.12</time>
   <energy>
    <i name="e_fr_energy">   -328.86134929 </i>
    <i name="e_wo_entrp">   -328.83958448 </i>
    <i name="e_0_energy">   -328.85409435 </i>
   </energy>
  </scstep>
  <scstep>
   <time name="dav">   24.36   24.42</time>
   <time name="total">   24.98   25.03</time>
   <energy>
    <i name="e_fr_energy">   -328.85897077 </i>
    <i name="e_wo_entrp">   -328.83756033 </i>
    <i name="e_0_energy">   -328.85183396 </i>
   </energy>
  </scstep>
  <scstep>
   <time name="dav">   23.89   23.94</time>
   <time name="total">   24.51   24.57</time>
   <energy>
    <i name="e_fr_energy">   -328.85930319 </i>
    <i name="e_wo_entrp">   -328.83818010 </i>
    <i name="e_0_energy">   -328.85226216 </i>
   </energy>
  </scstep>
  <scstep>
   <time name="dav">   22.95   22.99</time>
   <time name="total">   23.57   23.60</time>
   <energy>
    <i name="e_fr_energy">   -328.85884524 </i>
    <i name="e_wo_entrp">   -328.83747971 </i>
    <i name="e_0_energy">   -328.85172340 </i>
   </energy>
  </scstep>
  <scstep>
   <time name="dav">   15.97   15.99</time>
   <time name="total">   16.00   16.02</time>
   <energy>
    <i name="alphaZ">   1291.39724513 </i>
    <i name="ewald"> -11415.41488243 </i>
    <i name="hartreedc">  -3114.92427598 </i>
    <i name="XCdc">   -851.66185336 </i>
    <i name="pawpsdc">  20560.88620457 </i>
    <i name="pawaedc"> -19055.80059727 </i>
    <i name="eentropy">     -0.02129049 </i>
    <i name="bandstr">   -749.53707653 </i>
    <i name="atom">  13006.21773402 </i>
    <i name="e_fr_energy">   -328.85879233 </i>
    <i name="e_wo_entrp">   -328.83750184 </i>
    <i name="e_0_energy">   -328.85169550 </i>
   </energy>
  </scstep>
  <structure>
   <crystal>
    <varray name="basis" >
     <v>      -3.19000000      -3.19000000      -3.19000000 </v>
     <v>       1.59500000       1.59500000      -7.97500000 </v>
     <v>       7.97500000      -7.97500000      -1.59500000 </v>
    </varray>
    <i name="volume">    486.92638500 </i>
    <varray name="rec_basis" >
     <v>      -0.13584117      -0.12539185      -0.05224660 </v>
     <v>       0.04179728       0.06269592      -0.10449321 </v>
     <v>       0.06269592      -0.06269592       0.00000000 </v>
    </varray>
   </crystal>
   <varray name="positions" >
    <v>       0.96666667       0.93333333       0.40000000 </v>
    <v>       0.63333333       0.26666667       0.40000000 </v>
    <v>       0.50000000       0.00000000       0.00000000 </v>
    <v>       0.00000000       0.00000000       0.00000000 </v>
    <v>       0.10000000       0.20000000       0.80000000 </v>
    <v>       0.03333333       0.06666667       0.60000000 </v>
    <v>       0.90000000       0.80000000       0.20000000 </v>
    <v>       0.80000000       0.60000000       0.40000000 </v>
    <v>       0.73333333       0.46666667       0.20000000 </v>
    <v>       0.66666667       0.33333333       0.00000000 </v>
    <v>       0.36666667       0.73333333       0.60000000 </v>
    <v>       0.13333333       0.26666667       0.40000000 </v>
    <v>       0.83333333       0.66666667       0.00000000 </v>
    <v>       0.93333333       0.86666667       0.80000000 </v>
    <v>       0.56666667       0.13333333       0.20000000 </v>
    <v>       0.40000000       0.80000000       0.20000000 </v>
    <v>       0.43333333       0.86666667       0.80000000 </v>
    <v>       0.30000000       0.60000000       0.40000000 </v>
    <v>       0.86666667       0.73333333       0.60000000 </v>
    <v>       0.46666667       0.93333333       0.40000000 </v>
    <v>       0.16666667       0.33333333       0.00000000 </v>
    <v>       0.26666667       0.53333333       0.80000000 </v>
    <v>       0.20000000       0.40000000       0.60000000 </v>
    <v>       0.06666667       0.13333333       0.20000000 </v>
    <v>       0.76666667       0.53333333       0.80000000 </v>
    <v>       0.70000000       0.40000000       0.60000000 </v>
    <v>       0.60000000       0.20000000       0.80000000 </v>
    <v>       0.53333333       0.06666667       0.60000000 </v>
    <v>       0.23333333       0.46666667       0.20000000 </v>
   </varray>
  </structure>
  <varray name="forces" >
   <v>      -0.38524286       0.46704793       0.27195399 </v>
   <v>       0.14539078      -0.05481317       0.09723872 </v>
   <v>      -0.07403222       0.04039563      -0.52419087 </v>
   <v>       0.07622066      -0.35950842       0.34583920 </v>
   <v>       0.22984116       0.32909232      -0.49504435 </v>
   <v>      -0.47430494      -0.00100427      -0.20240339 </v>
   <v>       0.26790834      -0.47230309       0.23139710 </v>
   <v>      -0.46631627      -0.08587931       0.49311142 </v>
   <v>      -0.22857169       0.23281153       0.04280299 </v>
   <v>       0.18732191       0.36455403      -0.84203444 </v>
   <v>      -0.07985281      -0.40929005       0.35915122 </v>
   <v>       0.13568534       0.27174740      -0.46980306 </v>
   <v>       0.32247000      -0.41113632       0.43779438 </v>
   <v>       0.35408481       0.64766911      -0.04686902 </v>
   <v>      -0.33943394       0.49728217       0.02731318 </v>
   <v>      -0.91538520       0.07144600       0.90455107 </v>
   <v>      -0.81371027      -0.37534103       0.77098179 </v>
   <v>       0.21232463      -0.14222630      -0.35570110 </v>
   <v>       0.22640334       0.29902938       0.23338604 </v>
   <v>       0.62939714      -0.50073554       0.12531330 </v>
   <v>       0.16023909      -0.30339440       0.14602514 </v>
   <v>      -0.09479492      -0.12626071      -0.25505486 </v>
   <v>      -0.39755909       0.05078315       0.50706342 </v>
   <v>       0.53825095      -0.13236629      -0.74259936 </v>
   <v>      -0.34700917      -0.43662303       0.50917671 </v>
   <v>       0.94424276       0.10580219      -0.77185294 </v>
   <v>      -0.03765003       0.44288658      -0.14791729 </v>
   <v>       0.13584246      -0.32703892      -0.42646014 </v>
   <v>       0.08824002       0.31737342      -0.22316884 </v>
  </varray>
  <varray name="stress" >
   <v>     -21.61139704      -1.46572506       4.57142660 </v>
   <v>      -1.46572504     -26.70685054      -5.04114399 </v>
   <v>       4.57142656      -5.04114413     -27.43365165 </v>
  </varray>
  <energy>
   <i name="e_fr_energy">   -328.85879233 </i>
   <i name="e_wo_entrp">   -328.85169550 </i>
   <i name="e_0_energy">     -0.02129049 </i>
  </energy>
  <time name="totalsc">  535.38  536.28</time>
 </calculation>
 <calculation>
  <scstep>
   <time name="dav">   19.91   19.94</time>
   <time name="total">   20.60   20.64</time>
   <energy>
    <i name="alphaZ">   1342.16632622 </i>
    <i name="ewald"> -11608.12808472 </i>
    <i name="hartreedc">  -3111.80560259 </i>
    <i name="XCdc">   -846.85214628 </i>
    <i name="pawpsdc">  20561.47355307 </i>
    <i name="pawaedc"> -19056.33108124 </i>
    <i name="eentropy">     -0.02011503 </i>
    <i name="bandstr">   -616.82035220 </i>
    <i name="atom">  13006.21773402 </i>
    <i name="e_fr_energy">   -330.09976875 </i>
    <i name="e_wo_entrp">   -330.07965372 </i>
    <i name="e_0_energy">   -330.09306374 </i>
   </energy>
  </scstep>
  <scstep>
   <time name="dav">   26.15   26.18</time>
   <time name="total">   26.78   26.81</time>
   <energy>
    <i name="e_fr_energy">   -330.43151711 </i>
    <i name="e_wo_entrp">   -330.43061125 </i>
    <i name="e_0_energy">   -330.43121516 </i>
   </energy>
  </scstep>
  <scstep>
   <time name="dav">   25.17   25.20</time>
   <time name="total">   25.79   25.83</time>
   <energy>
    <i name="e_fr_energy">   -329.90560730 </i>
    <i name="e_wo_entrp">   -329.88808442 </i>
    <i name="e_0_energy">   -329.89976634 </i>
   </energy>
  </scstep>
  <scstep>
   <time name="dav">   26.08   26.11</time>
   <time name="total">   26.69   26.73</time>
   <energy>
    <i name="e_fr_energy">   -329.49373934 </i>
    <i name="e_wo_entrp">   -329.48170678 </i>
    <i name="e_0_energy">   -329.48972849 </i>
   </energy>
  </scstep>
  <scstep>
   <time name="dav">   25.53   25.56</time>
   <time name="total">   26.16   26.19</time>
   <energy>
    <i name="e_fr_energy">   -329.23859574 </i>
    <i name="e_wo_entrp">   -329.22108295 </i>
    <i name="e_0_energy">   -329.23275814 </i>
   </energy>
  </scstep>
  <scstep>
   <time name="dav">   26.50   26.54</time>
   <time name="total">   27.12   27.16</time>
   <energy>
    <i name="e_fr_energy">   -329.16149618 </i>
    <i name="e_wo_entrp">   -329.14298810 </i>
    <i name="e_0_energy">   -329.15532682 </i>
   </energy>
  </scstep>
  <scstep>
   <time name="dav">   27.47   27.50</time>
   <time name="total">   28.08   28.12</time>
   <energy>
    <i name="e_fr_energy">   -329.16816317 </i>
    <i name="e_wo_entrp">   -329.15024042 </i>
    <i name="e_0_energy">   -329.16218892 </i>
   </energy>
  </scstep>
  <scstep>
   <time name="dav">   25.64   25.67</time>
   <time name="total">   26.26   26.29</time>
   <energy>
    <i name="e_fr_energy">   -329.16756824 </i>
    <i name="e_wo_entrp">   -329.14851614 </i>
    <i name="e_0_energy">   -329.16121754 </i>
   </energy>
  </scstep>
  <scstep>
   <time name="dav">   26.34   26.37</time>
   <time name="total">   26.95   27.00</time>
   <energy>
    <i name="e_fr_energy">   -329.17024801 </i>
    <i name="e_wo_entrp">   -329.15135615 </i>
    <i name="e_0_energy">   -329.16395072 </i>
   </energy>
  </scstep>
  <scstep>
   <time name="dav">   25.62   25.65</time>
   <time name="total">   26.23   26.27</time>
   <energy>
    <i name="e_fr_energy">   -329.17311492 </i>
    <i name="e_wo_entrp">   -329.15432785 </i>
    <i name="e_0_energy">   -329.16685256 </i>
   </energy>
  </scstep>
  <scstep>
   <time name="dav">   26.44   26.48</time>
   <time name="total">   27.07   27.11</time>
   <energy>
    <i name="e_fr_energy">   -329.17347796 </i>
    <i name="e_wo_entrp">   -329.15455307 </i>
    <i name="e_0_energy">   -329.16716966 </i>
   </energy>
  </scstep>
  <scstep>
   <time name="dav">   26.56   26.59</time>
   <time name="total">   27.17   27.21</time>
   <energy>
    <i name="e_fr_energy">   -329.17359280 </i>
    <i name="e_wo_entrp">   -329.15465299 </i>
    <i name="e_0_energy">   -329.16727953 </i>
   </energy>
  </scstep>
  <scstep>
   <time name="dav">   25.99   26.03</time>
   <time name="total">   26.61   26.65</time>
   <energy>
    <i name="e_fr_energy">   -329.17374867 </i>
    <i name="e_wo_entrp">   -329.15476217 </i>
    <i name="e_0_energy">   -329.16741984 </i>
   </energy>
  </scstep>
  <scstep>
   <time name="dav">   19.65   19.67</time>
   <time name="total">   19.68   19.70</time>
   <energy>
    <i name="alphaZ">   1342.16632622 </i>
    <i name="ewald"> -11608.12808472 </i>
    <i name="hartreedc">  -3041.95965989 </i>
    <i name="XCdc">   -848.86786023 </i>
    <i name="pawpsdc">  21797.01458572 </i>
    <i name="pawaedc"> -20292.51748670 </i>
    <i name="eentropy">     -0.01901654 </i>
    <i name="bandstr">   -683.08030367 </i>
    <i name="atom">  13006.21773402 </i>
    <i name="e_fr_energy">   -329.17376578 </i>
    <i name="e_wo_entrp">   -329.15474924 </i>
    <i name="e_0_energy">   -329.16742693 </i>
   </energy>
  </scstep>
  <structure>
   <crystal>
    <varray name="basis" >
     <v>      -3.16015428      -3.13643340      -3.14499785 </v>
     <v>       1.55795895       1.59260755      -7.86476729 </v>
     <v>       7.89008702      -7.86916356      -1.53412017 </v>
    </varray>
    <i name="volume">    468.50779958 </i>
    <varray name="rec_basis" >
     <v>      -0.13731338      -0.12734815      -0.05298876 </v>
     <v>       0.04255391       0.06331242      -0.10589899 </v>
     <v>       0.06334167      -0.06350728      -0.00031259 </v>
    </varray>
   </crystal>
   <varray name="positions" >
    <v>       0.96568055       0.93259824       0.39742215 </v>
    <v>       0.63246702       0.26630387       0.40060554 </v>
    <v>       0.50156203       0.00261536      -0.00034610 </v>
    <v>       0.00080356      -0.00267707       0.00131791 </v>
    <v>       0.09775078       0.20395437       0.79969980 </v>
    <v>       0.03695785       0.06672756       0.59856845 </v>
    <v>       0.90051814       0.79794520       0.20223886 </v>
    <v>       0.80233254       0.59631417       0.39884932 </v>
    <v>       0.73331502       0.46669417       0.19860449 </v>
    <v>       0.66535617       0.33905841      -0.00053606 </v>
    <v>       0.36876062       0.73012388       0.60099642 </v>
    <v>       0.13198442       0.27013049       0.39958846 </v>
    <v>       0.83260367       0.66386644       0.00221888 </v>
    <v>       0.92721312       0.86957587       0.79911202 </v>
    <v>       0.56581408       0.13401529       0.19746925 </v>
    <v>       0.40328670       0.79381043       0.19701521 </v>
    <v>       0.43899310       0.86000409       0.79867410 </v>
    <v>       0.30036548       0.60179105       0.40107238 </v>
    <v>       0.86278582       0.73351780       0.59978033 </v>
    <v>       0.46525523       0.93245621       0.40341822 </v>
    <v>       0.16708381       0.33200267       0.00140231 </v>
    <v>       0.26869454       0.53404603       0.80009517 </v>
    <v>       0.20102008       0.39679583       0.59864394 </v>
    <v>       0.06581178       0.13776177       0.20202836 </v>
    <v>       0.77029859       0.52874622       0.80027105 </v>
    <v>       0.69511750       0.40611493       0.60253596 </v>
    <v>       0.59794044       0.20200930       0.79854656 </v>
    <v>       0.53549634       0.06810121       0.60140004 </v>
    <v>       0.23139770       0.46892953       0.19930696 </v>
   </varray>
  </structure>
  <varray name="forces" >
   <v>      -0.15916683       0.29412117       0.11312928 </v>
   <v>      -0.00226739       0.07123473       0.04512356 </v>
   <v>      -0.15620643       0.09856918      -0.09995183 </v>
   <v>      -0.12332999      -0.39722223       0.18399992 </v>
   <v>       0.02845040       0.00715339      -0.04988261 </v>
   <v>      -0.19482262       0.01228289      -0.16851716 </v>
   <v>       0.06899420      -0.10049649       0.09531397 </v>
   <v>      -0.13011932      -0.05964594       0.09950920 </v>
   <v>      -0.11084447       0.07745629       0.21286081 </v>
   <v>       0.26389970       0.38940876      -0.57382131 </v>
   <v>      -0.02755626      -0.15967439       0.20463122 </v>
   <v>       0.16038887       0.06016867      -0.12861412 </v>
   <v>       0.08925643      -0.21012974       0.09263403 </v>
   <v>      -0.03823448       0.09255393      -0.02822964 </v>
   <v>      -0.06281381       0.15049227       0.01842674 </v>
   <v>      -0.52135228       0.25271367       0.49456136 </v>
   <v>       0.04810505      -0.20850842       0.54796057 </v>
   <v>       0.12192521      -0.18511114      -0.11628873 </v>
   <v>       0.03752699       0.18543927       0.11710523 </v>
   <v>       0.24521669      -0.24622046       0.08354663 </v>
   <v>       0.07288811      -0.17336597       0.00354691 </v>
   <v>       0.07564235      -0.22658389      -0.23508006 </v>
   <v>      -0.13623192       0.17127795       0.17572510 </v>
   <v>       0.32422649      -0.06977729      -0.41155494 </v>
   <v>      -0.08841989      -0.26621064       0.04300932 </v>
   <v>       0.29521274       0.09660198      -0.23680136 </v>
   <v>       0.07795180       0.17025960      -0.13649895 </v>
   <v>       0.01865288      -0.17136551      -0.15497571 </v>
   <v>      -0.17697223       0.34457834      -0.19086743 </v>
  </varray>
  <varray name="stress" >
   <v>      61.29484777      -0.76683828       1.97216266 </v>
   <v>      -0.76683831      57.91131597      -2.75923020 </v>
   <v>       1.97216264      -2.75923025      59.60300711 </v>
  </varray>
  <energy>
   <i name="e_fr_energy">   -329.17376578 </i>
   <i name="e_wo_entrp">   -329.16742693 </i>
   <i name="e_0_energy">     -0.01901654 </i>
  </energy>
  <time name="totalsc">  379.19  379.72</time>
 </calculation>
 <calculation>
  <scstep>
   <time name="dav">   19.46   19.49</time>
   <time name="total">   20.10   20.13</time>
   <energy>
    <i name="alphaZ">   1328.37884834 </i>
    <i name="ewald"> -11556.71002075 </i>
    <i name="hartreedc">  -3042.83304763 </i>
    <i name="XCdc">   -850.14312751 </i>
    <i name="pawpsdc">  21796.63713802 </i>
    <i name="pawaedc"> -20292.10018085 </i>
    <i name="eentropy">     -0.01890521 </i>
    <i name="bandstr">   -718.71469193 </i>
    <i name="atom">  13006.21773402 </i>
    <i name="e_fr_energy">   -329.28625349 </i>
    <i name="e_wo_entrp">   -329.26734828 </i>
    <i name="e_0_energy">   -329.27995176 </i>
   </energy>
  </scstep>
  <scstep>
   <time name="dav">   26.95   26.98</time>
   <time name="total">   27.56   27.60</time>
   <energy>
    <i name="e_fr_energy">   -329.30544724 </i>
    <i name="e_wo_entrp">   -329.28378378 </i>
    <i name="e_0_energy">   -329.29822608 </i>
   </energy>
  </scstep>
  <scstep>
   <time name="dav">   25.80   25.84</time>
   <time name="total">   26.43   26.47</time>
   <energy>
    <i name="e_fr_energy">   -329.29810742 </i>
    <i name="e_wo_entrp">   -329.28187995 </i>
    <i name="e_0_energy">   -329.29269826 </i>
   </energy>
  </scstep>
  <scstep>
   <time name="dav">   25.95   25.98</time>
   <time name="total">   26.57   26.60</time>
   <energy>
    <i name="e_fr_energy">   -329.24577379 </i>
    <i name="e_wo_entrp">   -329.22533798 </i>
    <i name="e_0_energy">   -329.23896185 </i>
   </energy>
  </scstep>
  <scstep>
   <time name="dav">   25.44   25.47</time>
   <time name="total">   26.06   26.09</time>
   <energy>
    <i name="e_fr_energy">   -329.22675271 </i>
    <i name="e_wo_entrp">   -329.20699612 </i>
    <i name="e_0_energy">   -329.22016718 </i>
   </energy>
  </scstep>
  <scstep>
   <time name="dav">   26.25   26.29</time>
   <time name="total">   26.88   26.92</time>
   <energy>
    <i name="e_fr_energy">   -329.22301265 </i>
    <i name="e_wo_entrp">   -329.20309616 </i>
    <i name="e_0_energy">   -329.21637382 </i>
   </energy>
  </scstep>
  <scstep>
   <time name="dav">   27.19   27.22</time>
   <time name="total">   27.80   27.84</time>
   <energy>
    <i name="e_fr_energy">   -329.22329701 </i>
    <i name="e_wo_entrp">   -329.20319084 </i>
    <i name="e_0_energy">   -329.21659495 </i>
   </energy>
  </scstep>
  <scstep>
   <time name="dav">   23.44   23.47</time>
   <time name="total">   24.06   24.09</time>
   <energy>
    <i name="e_fr_energy">   -329.22325758 </i>
    <i name="e_wo_entrp">   -329.20322134 </i>
    <i name="e_0_energy">   -329.21657883 </i>
   </energy>
  </scstep>
  <scstep>
   <time name="dav">   23.24   23.27</time>
   <time name="total">   23.86   23.90</time>
   <energy>
    <i name="e_fr_energy">   -329.22345844 </i>
    <i name="e_wo_entrp">   -329.20354225 </i>
    <i name="e_0_energy">   -329.21681971 </i>
   </energy>
  </scstep>
  <scstep>
   <time name="dav">   23.92   23.95</time>
   <time name="total">   24.54   24.58</time>
   <energy>
    <i name="e_fr_energy">   -329.22359959 </i>
    <i name="e_wo_entrp">   -329.20359983 </i>
    <i name="e_0_energy">   -329.21693300 </i>
   </energy>
  </scstep>
  <scstep>
   <time name="dav">   22.59   22.63</time>
   <time name="total">   23.21   23.25</time>
   <energy>
    <i name="e_fr_energy">   -329.22359653 </i>
    <i name="e_wo_entrp">   -329.20360056 </i>
    <i name="e_0_energy">   -329.21693121 </i>
   </energy>
  </scstep>
  <scstep>
   <time name="dav">   18.01   18.03</time>
   <time name="total">   18.04   18.07</time>
   <energy>
    <i name="alphaZ">   1328.37884834 </i>
    <i name="ewald"> -11556.71002075 </i>
    <i name="hartreedc">  -3061.37855056 </i>
    <i name="XCdc">   -849.60394895 </i>
    <i name="pawpsdc">  21445.92647524 </i>
    <i name="pawaedc"> -19941.00452191 </i>
    <i name="eentropy">     -0.01998044 </i>
    <i name="bandstr">   -701.02962323 </i>
    <i name="atom">  13006.21773402 </i>
    <i name="e_fr_energy">   -329.22358823 </i>
    <i name="e_wo_entrp">   -329.20360779 </i>
    <i name="e_0_energy">   -329.21692808 </i>
   </energy>
  </scstep>
  <structure>
   <crystal>
    <varray name="basis" >
     <v>      -3.16810649      -3.15070589      -3.15698840 </v>
     <v>       1.56782831       1.59324500      -7.89413813 </v>
     <v>       7.91271157      -7.89736304      -1.55034123 </v>
    </varray>
    <i name="volume">    473.37052450 </i>
    <varray name="rec_basis" >
     <v>      -0.13691801      -0.12682110      -0.05278866 </v>
     <v>       0.04234994       0.06314712      -0.10552054 </v>
     <v>       0.06316820      -0.06328887      -0.00022774 </v>
    </varray>
   </crystal>
   <varray name="positions" >
    <v>       0.96595034       0.93279906       0.39811816 </v>
    <v>       0.63270014       0.26640131       0.40044281 </v>
    <v>       0.50114045       0.00190944      -0.00025495 </v>
    <v>       0.00058516      -0.00195542       0.00096377 </v>
    <v>       0.09835798       0.20288696       0.79977932 </v>
    <v>       0.03598118       0.06671230       0.59895299 </v>
    <v>       0.90037548       0.79849801       0.20163611 </v>
    <v>       0.80170477       0.59731037       0.39916087 </v>
    <v>       0.73332184       0.46668799       0.19898081 </v>
    <v>       0.66571003       0.33751307      -0.00039437 </v>
    <v>       0.36819432       0.73098953       0.60072877 </v>
    <v>       0.13234875       0.26919561       0.39969794 </v>
    <v>       0.83279802       0.66462058       0.00162247 </v>
    <v>       0.92886636       0.86879131       0.79935224 </v>
    <v>       0.56604759       0.13383344       0.19815167 </v>
    <v>       0.40240408       0.79548429       0.19782247 </v>
    <v>       0.43746761       0.86180411       0.79903332 </v>
    <v>       0.30026514       0.60130647       0.40078198 </v>
    <v>       0.86383388       0.73346829       0.59984104 </v>
    <v>       0.46563181       0.93269003       0.40249751 </v>
    <v>       0.16696947       0.33236070       0.00102477 </v>
    <v>       0.26814683       0.53385345       0.80006826 </v>
    <v>       0.20074688       0.39766219       0.59901112 </v>
    <v>       0.06603933       0.13656424       0.20147908 </v>
    <v>       0.76931820       0.52998447       0.80019920 </v>
    <v>       0.69643158       0.40446167       0.60185043 </v>
    <v>       0.59849821       0.20146812       0.79893816 </v>
    <v>       0.53491030       0.06771255       0.60102076 </v>
    <v>       0.23192096       0.46831920       0.19949330 </v>
   </varray>
  </structure>
  <varray name="forces" >
   <v>      -0.23231537       0.35150805       0.16599798 </v>
   <v>       0.04317884       0.03679223       0.06165745 </v>
   <v>      -0.13342682       0.08217287      -0.22004867 </v>
   <v>      -0.07091792      -0.38753274       0.23203933 </v>
   <v>       0.08956357       0.10341034      -0.17816591 </v>
   <v>      -0.27113071       0.00912415      -0.18014464 </v>
   <v>       0.12365433      -0.21032336       0.13763326 </v>
   <v>      -0.23124076      -0.06659117       0.21984420 </v>
   <v>      -0.14729492       0.13133217       0.15832585 </v>
   <v>       0.24305339       0.38774962      -0.66304254 </v>
   <v>      -0.05324191      -0.24339443       0.25778679 </v>
   <v>       0.15942279       0.12623181      -0.23263426 </v>
   <v>       0.16270736      -0.27971765       0.20185233 </v>
   <v>       0.08718446       0.25854957      -0.04441879 </v>
   <v>      -0.15431654       0.24699737       0.01088136 </v>
   <v>      -0.63482040       0.19508579       0.61530307 </v>
   <v>      -0.19551892      -0.25680988       0.62329279 </v>
   <v>       0.14753098      -0.18598885      -0.19486854 </v>
   <v>       0.09812796       0.22249435       0.15381947 </v>
   <v>       0.35607756      -0.32691959       0.10167111 </v>
   <v>       0.09843123      -0.21286294       0.04691369 </v>
   <v>       0.02494521      -0.20186890      -0.24256590 </v>
   <v>      -0.21435181       0.14103678       0.26850129 </v>
   <v>       0.38711764      -0.08616510      -0.51117975 </v>
   <v>      -0.16613489      -0.31505910       0.19756994 </v>
   <v>       0.49154364       0.09838925      -0.40608610 </v>
   <v>       0.03644087       0.25702613      -0.13805535 </v>
   <v>       0.05742188      -0.22125268      -0.23829450 </v>
   <v>      -0.10169072       0.34658589      -0.20358496 </v>
  </varray>
  <varray name="stress" >
   <v>      38.08675156      -0.93354273       2.87966012 </v>
   <v>      -0.93354267      33.83453578      -3.25339668 </v>
   <v>       2.87966017      -3.25339669      34.88965478 </v>
  </varray>
  <energy>
   <i name="e_fr_energy">   -329.22358823 </i>
   <i name="e_wo_entrp">   -329.21692808 </i>
   <i name="e_0_energy">     -0.01998044 </i>
  </energy>
  <time name="totalsc">  312.98  313.42</time>
 </calculation>
 <calculation>
  <scstep>
   <time name="dav">   18.36   18.41</time>
   <time name="total">   18.98   19.04</time>
   <energy>
    <i name="alphaZ">   1311.84473720 </i>
    <i name="ewald"> -11547.96662797 </i>
    <i name="hartreedc">  -3010.03685663 </i>
    <i name="XCdc">   -851.34064052 </i>
    <i name="pawpsdc">  21446.12782624 </i>
    <i name="pawaedc"> -19941.27938841 </i>
    <i name="eentropy">     -0.01565111 </i>
    <i name="bandstr">   -742.98023700 </i>
    <i name="atom">  13006.21773402 </i>
    <i name="e_fr_energy">   -329.42910419 </i>
    <i name="e_wo_entrp">   -329.41345308 </i>
    <i name="e_0_energy">   -329.42388715 </i>
   </energy>
  </scstep>
  <scstep>
   <time name="dav">   24.95   25.01</time>
   <time name="total">   25.57   25.64</time>
   <energy>
    <i name="e_fr_energy">   -329.64458677 </i>
    <i name="e_wo_entrp">   -329.62653617 </i>
    <i name="e_0_energy">   -329.63856991 </i>
   </energy>
  </scstep>
  <scstep>
   <time name="dav">   25.60   25.66</time>
   <time name="total">   26.23   26.30</time>
   <energy>
    <i name="e_fr_energy">   -329.63146714 </i>
    <i name="e_wo_entrp">   -329.61491481 </i>
    <i name="e_0_energy">   -329.62594970 </i>
   </energy>
  </scstep>
  <scstep>
   <time name="dav">   25.60   25.66</time>
   <time name="total">   26.22   26.28</time>
   <energy>
    <i name="e_fr_energy">   -329.55385710 </i>
    <i name="e_wo_entrp">   -329.53948067 </i>
    <i name="e_0_energy">   -329.54906496 </i>
   </energy>
  </scstep>
  <scstep>
   <time name="dav">   25.56   25.62</time>
   <time name="total">   26.18   26.24</time>
   <energy>
    <i name="e_fr_energy">   -329.54559291 </i>
    <i name="e_wo_entrp">   -329.52707685 </i>
    <i name="e_0_energy">   -329.53942089 </i>
   </energy>
  </scstep>
  <scstep>
   <time name="dav">   25.28   25.34</time>
   <time name="total">   25.91   25.98</time>
   <energy>
    <i name="e_fr_energy">   -329.53770359 </i>
    <i name="e_wo_entrp">   -329.52176360 </i>
    <i name="e_0_energy">   -329.53239026 </i>
   </energy>
  </scstep>
  <scstep>
   <time name="dav">   27.19   27.26</time>
   <time name="total">   27.80   27.88</time>
   <energy>
    <i name="e_fr_energy">   -329.53107634 </i>
    <i name="e_wo_entrp">   -329.51426439 </i>
    <i name="e_0_energy">   -329.52547236 </i>
   </energy>
  </scstep>
  <scstep>
   <time name="dav">   25.52   25.58</time>
   <time name="total">   26.14   26.20</time>
   <energy>
    <i name="e_fr_energy">   -329.53054932 </i>
    <i name="e_wo_entrp">   -329.51386639 </i>
    <i name="e_0_energy">   -329.52498834 </i>
   </energy>
  </scstep>
  <scstep>
   <time name="dav">   24.38   24.44</time>
   <time name="total">   25.00   25.06</time>
   <energy>
    <i name="e_fr_energy">   -329.53040205 </i>
    <i name="e_wo_entrp">   -329.51379270 </i>
    <i name="e_0_energy">   -329.52486560 </i>
   </energy>
  </scstep>
  <scstep>
   <time name="dav">   23.28   23.34</time>
   <time name="total">   23.90   23.95</time>
   <energy>
    <i name="e_fr_energy">   -329.53066375 </i>
    <i name="e_wo_entrp">   -329.51401518 </i>
    <i name="e_0_energy">   -329.52511422 </i>
   </energy>
  </scstep>
  <scstep>
   <time name="dav">   24.36   24.41</time>
   <time name="total">   24.97   25.03</time>
   <energy>
    <i name="e_fr_energy">   -329.53080598 </i>
    <i name="e_wo_entrp">   -329.51414340 </i>
    <i name="e_0_energy">   -329.52525179 </i>
   </energy>
  </scstep>
  <scstep>
   <time name="dav">   22.98   23.04</time>
   <time name="total">   23.61   23.67</time>
   <energy>
    <i name="e_fr_energy">   -329.53069152 </i>
    <i name="e_wo_entrp">   -329.51406363 </i>
    <i name="e_0_energy">   -329.52514889 </i>
   </energy>
  </scstep>
  <scstep>
   <time name="dav">   13.81   13.85</time>
   <time name="total">   13.84   13.88</time>
   <energy>
    <i name="alphaZ">   1311.84473720 </i>
    <i name="ewald"> -11547.96662797 </i>
    <i name="hartreedc">  -3030.24221651 </i>
    <i name="XCdc">   -850.66326630 </i>
    <i name="pawpsdc">  21030.19949881 </i>
    <i name="pawaedc"> -19525.80570194 </i>
    <i name="eentropy">     -0.01660326 </i>
    <i name="bandstr">   -723.09822295 </i>
    <i name="atom">  13006.21773402 </i>
    <i name="e_fr_energy">   -329.53066890 </i>
    <i name="e_wo_entrp">   -329.51406564 </i>
    <i name="e_0_energy">   -329.52513448 </i>
   </energy>
  </scstep>
  <structure>
   <crystal>
    <varray name="basis" >
     <v>      -3.19109919      -3.15175315      -3.16705103 </v>
     <v>       1.55983400       1.61543501      -7.92147620 </v>
     <v>       7.96122424      -7.92494502      -1.52142983 </v>
    </varray>
    <i name="volume">    479.33674950 </i>
    <varray name="rec_basis" >
     <v>      -0.13609437      -0.12661552      -0.05261946 </v>
     <v>       0.04235756       0.06272967      -0.10510586 </v>
     <v>       0.06275902      -0.06304188      -0.00049819 </v>
    </varray>
   </crystal>
   <varray name="positions" >
    <v>       0.96480129       0.93226447       0.39569793 </v>
    <v>       0.63184620       0.26614545       0.40076535 </v>
    <v>       0.50252019       0.00392952      -0.00083103 </v>
    <v>       0.00237730      -0.00486798       0.00223117 </v>
    <v>       0.09672681       0.20578533       0.79960168 </v>
    <v>       0.03918978       0.06698122       0.59769618 </v>
    <v>       0.90071965       0.79677506       0.20341071 </v>
    <v>       0.80374603       0.59431038       0.39825807 </v>
    <v>       0.73316673       0.46626796       0.19774081 </v>
    <v>       0.66363355       0.34355641      -0.00093326 </v>
    <v>       0.37000002       0.72801264       0.60159434 </v>
    <v>       0.13089864       0.27214043       0.39955102 </v>
    <v>       0.83250048       0.66223261       0.00358747 </v>
    <v>       0.92445833       0.87101944       0.79857355 </v>
    <v>       0.56528541       0.13441551       0.19609868 </v>
    <v>       0.40496878       0.78994243       0.19472919 </v>
    <v>       0.44116276       0.85570245       0.79845891 </v>
    <v>       0.30085955       0.60267614       0.40196001 </v>
    <v>       0.86036321       0.73362128       0.59949210 </v>
    <v>       0.46453659       0.93176102       0.40553103 </v>
    <v>       0.16751291       0.33125643       0.00232725 </v>
    <v>       0.27022562       0.53463161       0.80054430 </v>
    <v>       0.20118975       0.39516685       0.59764544 </v>
    <v>       0.06515760       0.14076589       0.20341350 </v>
    <v>       0.77273370       0.52620917       0.80061458 </v>
    <v>       0.69219761       0.40968069       0.60389471 </v>
    <v>       0.59653949       0.20345702       0.79777856 </v>
    <v>       0.53699600       0.06885575       0.60226647 </v>
    <v>       0.23035272       0.47063818       0.19830131 </v>
   </varray>
  </structure>
  <varray name="forces" >
   <v>      -0.02409077       0.15664203       0.04021810 </v>
   <v>      -0.01259381       0.09564695      -0.00116880 </v>
   <v>      -0.27059002       0.07068092       0.01706403 </v>
   <v>      -0.07825041      -0.22578738       0.07501145 </v>
   <v>      -0.05778322      -0.11903317       0.20189023 </v>
   <v>      -0.02579820       0.02589543      -0.12552417 </v>
   <v>      -0.00404705       0.06959036       0.08061869 </v>
   <v>      -0.01162351      -0.03794443      -0.02983298 </v>
   <v>       0.02798171      -0.02476036       0.19556147 </v>
   <v>       0.10689685       0.24112368      -0.23272499 </v>
   <v>       0.03636040      -0.00804240       0.08535425 </v>
   <v>       0.11183432      -0.00115951      -0.02336004 </v>
   <v>      -0.00803657      -0.03176649      -0.12835116 </v>
   <v>      -0.05506902       0.02247258      -0.05541509 </v>
   <v>       0.02011649      -0.00362060      -0.06509995 </v>
   <v>      -0.22157448       0.19154948       0.23263277 </v>
   <v>       0.25509526      -0.05982137       0.23813458 </v>
   <v>      -0.03764756      -0.09615651      -0.02241170 </v>
   <v>      -0.03505019       0.11533174       0.03832713 </v>
   <v>       0.03920800      -0.08974421       0.06277656 </v>
   <v>       0.04040499      -0.07593294      -0.01711561 </v>
   <v>       0.05162795      -0.21180577      -0.13544070 </v>
   <v>      -0.04308284       0.17144167       0.04629924 </v>
   <v>       0.21849407      -0.04297672      -0.17843592 </v>
   <v>       0.02560878      -0.15330968      -0.19989066 </v>
   <v>      -0.02594743       0.04747758       0.09348684 </v>
   <v>       0.02973811      -0.00436246      -0.06803341 </v>
   <v>       0.04107748      -0.14365772      -0.03249798 </v>
   <v>      -0.09325932       0.12202930      -0.09207219 </v>
  </varray>
  <varray name="stress" >
   <v>       9.47613404      -0.53690871       0.83139802 </v>
   <v>      -0.53690878       8.44103361      -1.07627441 </v>
   <v>       0.83139805      -1.07627443      10.18626300 </v>
  </varray>
  <energy>
   <i name="e_fr_energy">   -329.53066890 </i>
   <i name="e_wo_entrp">   -329.52513448 </i>
   <i name="e_0_energy">     -0.01660326 </i>
  </energy>
  <time name="totalsc">  332.16  333.04</time>
 </calculation>
 <calculation>
  <scstep>
   <time name="dav">   18.50   18.51</time>
   <time name="total">   19.11   19.14</time>
   <energy>
    <i name="alphaZ">   1306.92785829 </i>
    <i name="ewald"> -11544.46494851 </i>
    <i name="hartreedc">  -3015.48286489 </i>
    <i name="XCdc">   -851.18379774 </i>
    <i name="pawpsdc">  21030.47898489 </i>
    <i name="pawaedc"> -19526.10771994 </i>
    <i name="eentropy">     -0.01485673 </i>
    <i name="bandstr">   -735.90947909 </i>
    <i name="atom">  13006.21773402 </i>
    <i name="e_fr_energy">   -329.53908969 </i>
    <i name="e_wo_entrp">   -329.52423296 </i>
    <i name="e_0_energy">   -329.53413745 </i>
   </energy>
  </scstep>
  <scstep>
   <time name="dav">   24.98   25.01</time>
   <time name="total">   25.61   25.64</time>
   <energy>
    <i name="e_fr_energy">   -329.55815844 </i>
    <i name="e_wo_entrp">   -329.54278759 </i>
    <i name="e_0_energy">   -329.55303482 </i>
   </energy>
  </scstep>
  <scstep>
   <time name="dav">   25.48   25.51</time>
   <time name="total">   26.10   26.13</time>
   <energy>
    <i name="e_fr_energy">   -329.55560430 </i>
    <i name="e_wo_entrp">   -329.54030034 </i>
    <i name="e_0_energy">   -329.55050298 </i>
   </energy>
  </scstep>
  <scstep>
   <time name="dav">   25.35   25.37</time>
   <time name="total">   25.97   25.99</time>
   <energy>
    <i name="e_fr_energy">   -329.54939387 </i>
    <i name="e_wo_entrp">   -329.53504045 </i>
    <i name="e_0_energy">   -329.54460939 </i>
   </energy>
  </scstep>
  <scstep>
   <time name="dav">   25.64   25.67</time>
   <time name="total">   26.26   26.30</time>
   <energy>
    <i name="e_fr_energy">   -329.54876899 </i>
    <i name="e_wo_entrp">   -329.53319011 </i>
    <i name="e_0_energy">   -329.54357603 </i>
   </energy>
  </scstep>
  <scstep>
   <time name="dav">   25.47   25.50</time>
   <time name="total">   26.09   26.12</time>
   <energy>
    <i name="e_fr_energy">   -329.54796999 </i>
    <i name="e_wo_entrp">   -329.53319659 </i>
    <i name="e_0_energy">   -329.54304552 </i>
   </energy>
  </scstep>
  <scstep>
   <time name="dav">   23.88   23.91</time>
   <time name="total">   24.49   24.52</time>
   <energy>
    <i name="e_fr_energy">   -329.54747606 </i>
    <i name="e_wo_entrp">   -329.53248380 </i>
    <i name="e_0_energy">   -329.54247864 </i>
   </energy>
  </scstep>
  <scstep>
   <time name="dav">   22.29   22.31</time>
   <time name="total">   22.90   22.94</time>
   <energy>
    <i name="e_fr_energy">   -329.54743508 </i>
    <i name="e_wo_entrp">   -329.53245127 </i>
    <i name="e_0_energy">   -329.54244048 </i>
   </energy>
  </scstep>
  <scstep>
   <time name="dav">   15.86   15.88</time>
   <time name="total">   15.90   15.91</time>
   <energy>
    <i name="alphaZ">   1306.92785829 </i>
    <i name="ewald"> -11544.46494851 </i>
    <i name="hartreedc">  -3021.94849697 </i>
    <i name="XCdc">   -850.97041124 </i>
    <i name="pawpsdc">  20920.05331569 </i>
    <i name="pawaedc"> -19415.53575973 </i>
    <i name="eentropy">     -0.01493579 </i>
    <i name="bandstr">   -729.81177185 </i>
    <i name="atom">  13006.21773402 </i>
    <i name="e_fr_energy">   -329.54741608 </i>
    <i name="e_wo_entrp">   -329.53248029 </i>
    <i name="e_0_energy">   -329.54243748 </i>
   </energy>
  </scstep>
  <structure>
   <crystal>
    <varray name="basis" >
     <v>      -3.19801985      -3.15206836      -3.17007982 </v>
     <v>       1.55742776       1.62211407      -7.92970479 </v>
     <v>       7.97582626      -7.93324703      -1.51272768 </v>
    </varray>
    <i name="volume">    481.14009368 </i>
    <varray name="rec_basis" >
     <v>      -0.13584842      -0.12655354      -0.05256922 </v>
     <v>       0.04235940       0.06260492      -0.10498196 </v>
     <v>       0.06263706      -0.06296820      -0.00057870 </v>
    </varray>
   </crystal>
   <varray name="positions" >
    <v>       0.96445332       0.93210223       0.39497215 </v>
    <v>       0.63159058       0.26606901       0.40086148 </v>
    <v>       0.50293328       0.00453468      -0.00100188 </v>
    <v>       0.00291619      -0.00574018       0.00260991 </v>
    <v>       0.09623771       0.20665416       0.79954943 </v>
    <v>       0.04015015       0.06706080       0.59732117 </v>
    <v>       0.90082517       0.79625995       0.20394147 </v>
    <v>       0.80435659       0.59341019       0.39798676 </v>
    <v>       0.73311846       0.46614101       0.19736905 </v>
    <v>       0.66301068       0.34536785      -0.00109212 </v>
    <v>       0.37054241       0.72712083       0.60185268 </v>
    <v>       0.13046386       0.27302321       0.39950808 </v>
    <v>       0.83241380       0.66151827       0.00417463 </v>
    <v>       0.92313567       0.87168684       0.79833973 </v>
    <v>       0.56505405       0.13458835       0.19548370 </v>
    <v>       0.40573302       0.78827837       0.19380048 </v>
    <v>       0.44226944       0.85387262       0.79828490 </v>
    <v>       0.30103954       0.60308775       0.40231392 </v>
    <v>       0.85932204       0.73366688       0.59938623 </v>
    <v>       0.46421233       0.93148497       0.40643877 </v>
    <v>       0.16767758       0.33092642       0.00271701 </v>
    <v>       0.27084968       0.53486528       0.80068820 </v>
    <v>       0.20132043       0.39441759       0.59723511 </v>
    <v>       0.06489626       0.14202717       0.20399499 </v>
    <v>       0.77375811       0.52507761       0.80073827 </v>
    <v>       0.69093134       0.41124710       0.60450830 </v>
    <v>       0.59595072       0.20405237       0.79743151 </v>
    <v>       0.53762323       0.06919949       0.60264115 </v>
    <v>       0.22988101       0.47133247       0.19794491 </v>
   </varray>
  </structure>
  <varray name="forces" >
   <v>       0.05112123       0.08776402      -0.00160986 </v>
   <v>      -0.03133283       0.11519568      -0.02339782 </v>
   <v>      -0.31068065       0.06663430       0.09589653 </v>
   <v>      -0.07887815      -0.17526656       0.03030246 </v>
   <v>      -0.10559277      -0.18423276       0.31064456 </v>
   <v>       0.04653382       0.03206915      -0.10544868 </v>
   <v>      -0.04815834       0.15574538       0.06732097 </v>
   <v>       0.05333067      -0.02624764      -0.10802171 </v>
   <v>       0.08217543      -0.07604117       0.20666399 </v>
   <v>       0.06991861       0.19839494      -0.10058495 </v>
   <v>       0.06565467       0.06925952       0.02685269 </v>
   <v>       0.09198857      -0.03822538       0.03699368 </v>
   <v>      -0.05244742       0.03431067      -0.22955097 </v>
   <v>      -0.08192441      -0.04435600      -0.07533411 </v>
   <v>       0.06585809      -0.07269540      -0.08955774 </v>
   <v>      -0.10875629       0.18172445       0.12864509 </v>
   <v>       0.37574241      -0.02384836       0.11793250 </v>
   <v>      -0.09885722      -0.07183938       0.03324739 </v>
   <v>      -0.07558787       0.07780601       0.00863113 </v>
   <v>      -0.05327710      -0.02421685       0.05540192 </v>
   <v>       0.02761156      -0.03454947      -0.03733674 </v>
   <v>       0.06402540      -0.21291545      -0.09627253 </v>
   <v>       0.01061877       0.18094408      -0.01509025 </v>
   <v>       0.16913173      -0.01871452      -0.08803140 </v>
   <v>       0.08188635      -0.09758381      -0.32511204 </v>
   <v>      -0.18189866       0.03205243       0.25000426 </v>
   <v>       0.03221423      -0.07626531      -0.04974551 </v>
   <v>       0.02867971      -0.11165392       0.03056690 </v>
   <v>      -0.08909953       0.05675136      -0.05400974 </v>
  </varray>
  <varray name="stress" >
   <v>       2.19299893      -0.37176208       0.03130453 </v>
   <v>      -0.37176212       2.11863524      -0.55765588 </v>
   <v>       0.03130447      -0.55765593       4.05902898 </v>
  </varray>
  <energy>
   <i name="e_fr_energy">   -329.54741608 </i>
   <i name="e_wo_entrp">   -329.54243748 </i>
   <i name="e_0_energy">     -0.01493579 </i>
  </energy>
  <time name="totalsc">  230.56  230.84</time>
 </calculation>
 <calculation>
  <scstep>
   <time name="dav">   18.44   18.46</time>
   <time name="total">   19.05   19.07</time>
   <energy>
    <i name="alphaZ">   1303.23527579 </i>
    <i name="ewald"> -11533.06066496 </i>
    <i name="hartreedc">  -3019.65658269 </i>
    <i name="XCdc">   -851.33860313 </i>
    <i name="pawpsdc">  20918.67085159 </i>
    <i name="pawaedc"> -19414.27384902 </i>
    <i name="eentropy">     -0.01487901 </i>
    <i name="bandstr">   -739.34479566 </i>
    <i name="atom">  13006.21773402 </i>
    <i name="e_fr_energy">   -329.56551304 </i>
    <i name="e_wo_entrp">   -329.55063403 </i>
    <i name="e_0_energy">   -329.56055337 </i>
   </energy>
  </scstep>
  <scstep>
   <time name="dav">   24.12   24.15</time>
   <time name="total">   24.73   24.77</time>
   <energy>
    <i name="e_fr_energy">   -329.58406558 </i>
    <i name="e_wo_entrp">   -329.56812866 </i>
    <i name="e_0_energy">   -329.57875327 </i>
   </energy>
  </scstep>
  <scstep>
   <time name="dav">   24.75   24.77</time>
   <time name="total">   25.36   25.38</time>
   <energy>
    <i name="e_fr_energy">   -329.58231160 </i>
    <i name="e_wo_entrp">   -329.56772353 </i>
    <i name="e_0_energy">   -329.57744891 </i>
   </energy>
  </scstep>
  <scstep>
   <time name="dav">   25.66   25.69</time>
   <time name="total">   26.27   26.30</time>
   <energy>
    <i name="e_fr_energy">   -329.57890054 </i>
    <i name="e_wo_entrp">   -329.56353214 </i>
    <i name="e_0_energy">   -329.57377774 </i>
   </energy>
  </scstep>
  <scstep>
   <time name="dav">   25.02   25.05</time>
   <time name="total">   25.63   25.67</time>
   <energy>
    <i name="e_fr_energy">   -329.57865124 </i>
    <i name="e_wo_entrp">   -329.56381999 </i>
    <i name="e_0_energy">   -329.57370749 </i>
   </energy>
  </scstep>
  <scstep>
   <time name="dav">   26.03   26.06</time>
   <time name="total">   26.65   26.68</time>
   <energy>
    <i name="e_fr_energy">   -329.57775174 </i>
    <i name="e_wo_entrp">   -329.56261052 </i>
    <i name="e_0_energy">   -329.57270467 </i>
   </energy>
  </scstep>
  <scstep>
   <time name="dav">   23.25   23.28</time>
   <time name="total">   23.87   23.89</time>
   <energy>
    <i name="e_fr_energy">   -329.57769326 </i>
    <i name="e_wo_entrp">   -329.56252993 </i>
    <i name="e_0_energy">   -329.57263882 </i>
   </energy>
  </scstep>
  <scstep>
   <time name="dav">   17.15   17.17</time>
   <time name="total">   17.19   17.21</time>
   <energy>
    <i name="alphaZ">   1303.23527579 </i>
    <i name="ewald"> -11533.06066496 </i>
    <i name="hartreedc">  -3024.91976528 </i>
    <i name="XCdc">   -851.17906568 </i>
    <i name="pawpsdc">  20817.43094455 </i>
    <i name="pawaedc"> -19312.89935941 </i>
    <i name="eentropy">     -0.01504722 </i>
    <i name="bandstr">   -734.38772087 </i>
    <i name="atom">  13006.21773402 </i>
    <i name="e_fr_energy">   -329.57766905 </i>
    <i name="e_wo_entrp">   -329.56262184 </i>
    <i name="e_0_energy">   -329.57265331 </i>
   </energy>
  </scstep>
  <structure>
   <crystal>
    <varray name="basis" >
     <v>      -3.20016336      -3.15328376      -3.17380821 </v>
     <v>       1.55818202       1.62468378      -7.94067209 </v>
     <v>       7.98289602      -7.93964328      -1.51292755 </v>
    </varray>
    <i name="volume">    482.50335442 </i>
    <varray name="rec_basis" >
     <v>      -0.13575892      -0.12649061      -0.05252003 </v>
     <v>       0.04233798       0.06254422      -0.10482931 </v>
     <v>       0.06258118      -0.06291525      -0.00059246 </v>
    </varray>
   </crystal>
   <varray name="positions" >
    <v>       0.96388015       0.93234214       0.39487677 </v>
    <v>       0.63129807       0.26632765       0.40057648 </v>
    <v>       0.50384532       0.00395723      -0.00174923 </v>
[...]
       <r>    4.5742    1.0000 </r>
       <r>    4.6545    1.0000 </r>
       <r>    4.7328    1.0000 </r>
       <r>    4.7478    1.0000 </r>
       <r>    4.8386    1.0000 </r>
       <r>    4.8751    1.0000 </r>
       <r>    4.9425    1.0000 </r>
       <r>    4.9729    1.0000 </r>
       <r>    5.0628    1.0000 </r>
       <r>    5.0911    1.0000 </r>
       <r>    5.1261    1.0000 </r>
       <r>    5.1776    1.0000 </r>
       <r>    5.2552    1.0000 </r>
       <r>    5.3360    1.0000 </r>
       <r>    5.3616    1.0000 </r>
       <r>    5.4362    1.0000 </r>
       <r>    5.4892    1.0000 </r>
       <r>    5.5335    1.0000 </r>
       <r>    5.5892    1.0000 </r>
       <r>    5.6505    1.0000 </r>
       <r>    5.7378    1.0000 </r>
       <r>    5.7874    1.0000 </r>
       <r>    5.8040    1.0000 </r>
       <r>    5.8730    1.0000 </r>
       <r>    5.9361    1.0000 </r>
       <r>    5.9869    1.0000 </r>
       <r>    6.0412    1.0000 </r>
       <r>    6.0600    1.0000 </r>
       <r>    6.1084    1.0001 </r>
       <r>    6.1635    1.0003 </r>
       <r>    6.2157    1.0010 </r>
       <r>    6.2387    1.0016 </r>
       <r>    6.3121    1.0066 </r>
       <r>    6.3518    1.0122 </r>
       <r>    6.4227    1.0274 </r>
       <r>    6.4698    1.0352 </r>
       <r>    6.5429    1.0123 </r>
       <r>    6.5776    0.9705 </r>
       <r>    6.6956    0.6186 </r>
       <r>    6.7611    0.3457 </r>
       <r>    6.7996    0.2039 </r>
       <r>    6.8467    0.0739 </r>
       <r>    6.9204   -0.0232 </r>
       <r>    7.0856   -0.0141 </r>
       <r>    7.1854   -0.0026 </r>
       <r>    7.2558   -0.0006 </r>
       <r>    7.3722   -0.0000 </r>
       <r>    7.5346   -0.0000 </r>
       <r>    7.7334   -0.0000 </r>
       <r>    7.8441   -0.0000 </r>
       <r>    7.9059   -0.0000 </r>
       <r>    8.0382   -0.0000 </r>
       <r>    8.1682   -0.0000 </r>
       <r>    8.2648   -0.0000 </r>
       <r>    8.6177   -0.0000 </r>
       <r>    8.6456   -0.0000 </r>
       <r>    8.7541   -0.0000 </r>
       <r>    8.8146   -0.0000 </r>
       <r>    8.8857   -0.0000 </r>
       <r>    8.9649   -0.0000 </r>
       <r>    9.0403   -0.0000 </r>
      </set>
     </set>
    </set>
   </array>
  </eigenvalues>
  <separator name="orbital magnetization" >
   <v name="MAGDIPOLOUT">      0.00000000      0.00000000      0.00000000</v>
  </separator>
  <dos>
   <i name="efermi">      6.72392522 </i>
   <total>
    <array>
     <dimension dim="1">gridpoints</dimension>
     <dimension dim="2">spin</dimension>
     <field>energy</field>
     <field>total</field>
     <field>integrated</field>
     <set>
      <set comment="spin 1">
       <r>   -50.2595     0.0000     0.0000 </r>
       <r>   -50.0518     0.0000     0.0000 </r>
       <r>   -49.8440     0.0000     0.0000 </r>
       <r>   -49.6363     0.0000     0.0000 </r>
       <r>   -49.4285     0.0000     0.0000 </r>
       <r>   -49.2208    -0.0000    -0.0000 </r>
       <r>   -49.0130    -0.0000    -0.0000 </r>
       <r>   -48.8053    -0.0000    -0.0000 </r>
       <r>   -48.5975    -0.0000    -0.0000 </r>
       <r>   -48.3898    -0.0000    -0.0000 </r>
       <r>   -48.1820    -0.0000    -0.0000 </r>
       <r>   -47.9743    -0.0032    -0.0007 </r>
       <r>   -47.7665    -0.2129    -0.0449 </r>
       <r>   -47.5588    -0.3053    -0.1083 </r>
       <r>   -47.3510    13.9287     2.7853 </r>
       <r>   -47.1433    27.9305     8.5879 </r>
       <r>   -46.9355    15.1099    11.7269 </r>
       <r>   -46.7278     1.7183    12.0839 </r>
       <r>   -46.5200    -0.3889    12.0031 </r>
       <r>   -46.3123    -0.0149    12.0000 </r>
       <r>   -46.1045    -0.0000    12.0000 </r>
       <r>   -45.8968    -0.0000    12.0000 </r>
       <r>   -45.6890    -0.0000    12.0000 </r>
       <r>   -45.4813     0.0000    12.0000 </r>
       <r>   -45.2735     0.0000    12.0000 </r>
       <r>   -45.0658     0.0000    12.0000 </r>
       <r>   -44.8580     0.0000    12.0000 </r>
       <r>   -44.6503     0.0000    12.0000 </r>
       <r>   -44.4426     0.0000    12.0000 </r>
       <r>   -44.2348     0.0000    12.0000 </r>
       <r>   -44.0271     0.0000    12.0000 </r>
       <r>   -43.8193     0.0000    12.0000 </r>
       <r>   -43.6116     0.0000    12.0000 </r>
       <r>   -43.4038     0.0000    12.0000 </r>
       <r>   -43.1961     0.0000    12.0000 </r>
       <r>   -42.9883     0.0000    12.0000 </r>
       <r>   -42.7806     0.0000    12.0000 </r>
       <r>   -42.5728     0.0000    12.0000 </r>
       <r>   -42.3651     0.0000    12.0000 </r>
       <r>   -42.1573     0.0000    12.0000 </r>
       <r>   -41.9496     0.0000    12.0000 </r>
       <r>   -41.7418     0.0000    12.0000 </r>
       <r>   -41.5341     0.0000    12.0000 </r>
       <r>   -41.3263     0.0000    12.0000 </r>
       <r>   -41.1186     0.0000    12.0000 </r>
       <r>   -40.9108     0.0000    12.0000 </r>
       <r>   -40.7031     0.0000    12.0000 </r>
       <r>   -40.4953     0.0000    12.0000 </r>
       <r>   -40.2876     0.0000    12.0000 </r>
       <r>   -40.0798     0.0000    12.0000 </r>
       <r>   -39.8721     0.0000    12.0000 </r>
       <r>   -39.6643     0.0000    12.0000 </r>
       <r>   -39.4566     0.0000    12.0000 </r>
       <r>   -39.2488     0.0000    12.0000 </r>
       <r>   -39.0411     0.0000    12.0000 </r>
       <r>   -38.8333     0.0000    12.0000 </r>
       <r>   -38.6256     0.0000    12.0000 </r>
       <r>   -38.4178     0.0000    12.0000 </r>
       <r>   -38.2101     0.0000    12.0000 </r>
       <r>   -38.0023     0.0000    12.0000 </r>
       <r>   -37.7946     0.0000    12.0000 </r>
       <r>   -37.5868     0.0000    12.0000 </r>
       <r>   -37.3791     0.0000    12.0000 </r>
       <r>   -37.1714     0.0000    12.0000 </r>
       <r>   -36.9636     0.0000    12.0000 </r>
       <r>   -36.7559     0.0000    12.0000 </r>
       <r>   -36.5481     0.0000    12.0000 </r>
       <r>   -36.3404     0.0000    12.0000 </r>
       <r>   -36.1326     0.0000    12.0000 </r>
       <r>   -35.9249     0.0000    12.0000 </r>
       <r>   -35.7171     0.0000    12.0000 </r>
       <r>   -35.5094     0.0000    12.0000 </r>
       <r>   -35.3016     0.0000    12.0000 </r>
       <r>   -35.0939     0.0000    12.0000 </r>
       <r>   -34.8861     0.0000    12.0000 </r>
       <r>   -34.6784     0.0000    12.0000 </r>
       <r>   -34.4706     0.0000    12.0000 </r>
       <r>   -34.2629     0.0000    12.0000 </r>
       <r>   -34.0551     0.0000    12.0000 </r>
       <r>   -33.8474     0.0000    12.0000 </r>
       <r>   -33.6396     0.0000    12.0000 </r>
       <r>   -33.4319     0.0000    12.0000 </r>
       <r>   -33.2241     0.0000    12.0000 </r>
       <r>   -33.0164     0.0000    12.0000 </r>
       <r>   -32.8086     0.0000    12.0000 </r>
       <r>   -32.6009     0.0000    12.0000 </r>
       <r>   -32.3931     0.0000    12.0000 </r>
       <r>   -32.1854     0.0000    12.0000 </r>
       <r>   -31.9776     0.0000    12.0000 </r>
       <r>   -31.7699     0.0000    12.0000 </r>
       <r>   -31.5621     0.0000    12.0000 </r>
       <r>   -31.3544     0.0000    12.0000 </r>
       <r>   -31.1466     0.0000    12.0000 </r>
       <r>   -30.9389     0.0000    12.0000 </r>
       <r>   -30.7311     0.0000    12.0000 </r>
       <r>   -30.5234     0.0000    12.0000 </r>
       <r>   -30.3157     0.0000    12.0000 </r>
       <r>   -30.1079     0.0000    12.0000 </r>
       <r>   -29.9002     0.0000    12.0000 </r>
       <r>   -29.6924     0.0000    12.0000 </r>
       <r>   -29.4847     0.0000    12.0000 </r>
       <r>   -29.2769     0.0000    12.0000 </r>
       <r>   -29.0692     0.0000    12.0000 </r>
       <r>   -28.8614     0.0000    12.0000 </r>
       <r>   -28.6537     0.0000    12.0000 </r>
       <r>   -28.4459     0.0000    12.0000 </r>
       <r>   -28.2382     0.0000    12.0000 </r>
       <r>   -28.0304     0.0000    12.0000 </r>
       <r>   -27.8227     0.0000    12.0000 </r>
       <r>   -27.6149     0.0000    12.0000 </r>
       <r>   -27.4072     0.0000    12.0000 </r>
       <r>   -27.1994     0.0000    12.0000 </r>
       <r>   -26.9917     0.0000    12.0000 </r>
       <r>   -26.7839     0.0000    12.0000 </r>
       <r>   -26.5762     0.0000    12.0000 </r>
       <r>   -26.3684     0.0000    12.0000 </r>
       <r>   -26.1607     0.0000    12.0000 </r>
       <r>   -25.9529     0.0000    12.0000 </r>
       <r>   -25.7452    -0.0000    12.0000 </r>
       <r>   -25.5374    -0.0000    12.0000 </r>
       <r>   -25.3297    -0.0000    12.0000 </r>
       <r>   -25.1219    -0.0000    12.0000 </r>
       <r>   -24.9142    -0.0000    12.0000 </r>
       <r>   -24.7064    -0.0001    12.0000 </r>
       <r>   -24.4987    -0.0152    11.9968 </r>
       <r>   -24.2909    -0.2058    11.9541 </r>
       <r>   -24.0832     1.0536    12.1730 </r>
       <r>   -23.8754     9.4561    14.1375 </r>
       <r>   -23.6677    20.8961    18.4786 </r>
       <r>   -23.4600    41.1390    27.0251 </r>
       <r>   -23.2522    51.4347    37.7106 </r>
       <r>   -23.0445    32.8686    44.5390 </r>
       <r>   -22.8367    13.5117    47.3461 </r>
       <r>   -22.6290     3.1604    48.0026 </r>
       <r>   -22.4212     0.0661    48.0164 </r>
       <r>   -22.2135    -0.0766    48.0005 </r>
       <r>   -22.0057    -0.0022    48.0000 </r>
       <r>   -21.7980    -0.0000    48.0000 </r>
       <r>   -21.5902    -0.0000    48.0000 </r>
       <r>   -21.3825    -0.0000    48.0000 </r>
       <r>   -21.1747     0.0000    48.0000 </r>
       <r>   -20.9670     0.0000    48.0000 </r>
       <r>   -20.7592     0.0000    48.0000 </r>
       <r>   -20.5515     0.0000    48.0000 </r>
       <r>   -20.3437     0.0000    48.0000 </r>
       <r>   -20.1360     0.0000    48.0000 </r>
       <r>   -19.9282     0.0000    48.0000 </r>
       <r>   -19.7205     0.0000    48.0000 </r>
       <r>   -19.5127     0.0000    48.0000 </r>
       <r>   -19.3050     0.0000    48.0000 </r>
       <r>   -19.0972     0.0000    48.0000 </r>
       <r>   -18.8895     0.0000    48.0000 </r>
       <r>   -18.6817     0.0000    48.0000 </r>
       <r>   -18.4740     0.0000    48.0000 </r>
       <r>   -18.2662     0.0000    48.0000 </r>
       <r>   -18.0585     0.0000    48.0000 </r>
       <r>   -17.8507     0.0000    48.0000 </r>
       <r>   -17.6430     0.0000    48.0000 </r>
       <r>   -17.4352     0.0000    48.0000 </r>
       <r>   -17.2275     0.0000    48.0000 </r>
       <r>   -17.0197     0.0000    48.0000 </r>
       <r>   -16.8120     0.0000    48.0000 </r>
       <r>   -16.6042     0.0000    48.0000 </r>
       <r>   -16.3965     0.0000    48.0000 </r>
       <r>   -16.1888     0.0000    48.0000 </r>
       <r>   -15.9810     0.0000    48.0000 </r>
       <r>   -15.7733     0.0000    48.0000 </r>
       <r>   -15.5655     0.0000    48.0000 </r>
       <r>   -15.3578     0.0000    48.0000 </r>
       <r>   -15.1500     0.0000    48.0000 </r>
       <r>   -14.9423     0.0000    48.0000 </r>
       <r>   -14.7345     0.0000    48.0000 </r>
       <r>   -14.5268     0.0000    48.0000 </r>
       <r>   -14.3190     0.0000    48.0000 </r>
       <r>   -14.1113     0.0000    48.0000 </r>
       <r>   -13.9035     0.0000    48.0000 </r>
       <r>   -13.6958     0.0000    48.0000 </r>
       <r>   -13.4880     0.0000    48.0000 </r>
       <r>   -13.2803     0.0000    48.0000 </r>
       <r>   -13.0725     0.0000    48.0000 </r>
       <r>   -12.8648     0.0000    48.0000 </r>
       <r>   -12.6570     0.0000    48.0000 </r>
       <r>   -12.4493     0.0000    48.0000 </r>
       <r>   -12.2415     0.0000    48.0000 </r>
       <r>   -12.0338     0.0000    48.0000 </r>
       <r>   -11.8260     0.0000    48.0000 </r>
       <r>   -11.6183     0.0000    48.0000 </r>
       <r>   -11.4105     0.0000    48.0000 </r>
       <r>   -11.2028     0.0000    48.0000 </r>
       <r>   -10.9950     0.0000    48.0000 </r>
       <r>   -10.7873     0.0000    48.0000 </r>
       <r>   -10.5795     0.0000    48.0000 </r>
       <r>   -10.3718     0.0000    48.0000 </r>
       <r>   -10.1640     0.0000    48.0000 </r>
       <r>    -9.9563     0.0000    48.0000 </r>
       <r>    -9.7485     0.0000    48.0000 </r>
       <r>    -9.5408     0.0000    48.0000 </r>
       <r>    -9.3331     0.0000    48.0000 </r>
       <r>    -9.1253     0.0000    48.0000 </r>
       <r>    -8.9176     0.0000    48.0000 </r>
       <r>    -8.7098     0.0000    48.0000 </r>
       <r>    -8.5021     0.0000    48.0000 </r>
       <r>    -8.2943     0.0000    48.0000 </r>
       <r>    -8.0866     0.0000    48.0000 </r>
       <r>    -7.8788     0.0000    48.0000 </r>
       <r>    -7.6711     0.0000    48.0000 </r>
       <r>    -7.4633     0.0000    48.0000 </r>
       <r>    -7.2556     0.0000    48.0000 </r>
       <r>    -7.0478     0.0000    48.0000 </r>
       <r>    -6.8401     0.0000    48.0000 </r>
       <r>    -6.6323     0.0000    48.0000 </r>
       <r>    -6.4246     0.0000    48.0000 </r>
       <r>    -6.2168     0.0000    48.0000 </r>
       <r>    -6.0091     0.0000    48.0000 </r>
       <r>    -5.8013     0.0000    48.0000 </r>
       <r>    -5.5936     0.0000    48.0000 </r>
       <r>    -5.3858     0.0000    48.0000 </r>
       <r>    -5.1781     0.0000    48.0000 </r>
       <r>    -4.9703     0.0000    48.0000 </r>
       <r>    -4.7626     0.0000    48.0000 </r>
       <r>    -4.5548     0.0000    48.0000 </r>
       <r>    -4.3471     0.0000    48.0000 </r>
       <r>    -4.1393     0.0000    48.0000 </r>
       <r>    -3.9316     0.0000    48.0000 </r>
       <r>    -3.7238     0.0000    48.0000 </r>
       <r>    -3.5161     0.0000    48.0000 </r>
       <r>    -3.3083     0.0000    48.0000 </r>
       <r>    -3.1006     0.0000    48.0000 </r>
       <r>    -2.8928     0.0000    48.0000 </r>
       <r>    -2.6851     0.0000    48.0000 </r>
       <r>    -2.4774     0.0000    48.0000 </r>
       <r>    -2.2696    -0.0000    48.0000 </r>
       <r>    -2.0619    -0.0000    48.0000 </r>
       <r>    -1.8541    -0.0000    48.0000 </r>
       <r>    -1.6464    -0.0000    48.0000 </r>
       <r>    -1.4386    -0.0000    48.0000 </r>
       <r>    -1.2309    -0.0000    48.0000 </r>
       <r>    -1.0231    -0.0001    48.0000 </r>
       <r>    -0.8154    -0.0049    47.9990 </r>
       <r>    -0.6076    -0.0031    47.9983 </r>
       <r>    -0.3999     0.2550    48.0513 </r>
       <r>    -0.1921     0.8935    48.2369 </r>
       <r>     0.0156     1.4398    48.5360 </r>
       <r>     0.2234     1.8793    48.9265 </r>
       <r>     0.4311     1.4173    49.2209 </r>
       <r>     0.6389     2.7815    49.7988 </r>
       <r>     0.8466     3.7446    50.5767 </r>
       <r>     1.0544     2.8424    51.1672 </r>
       <r>     1.2621     2.9118    51.7721 </r>
       <r>     1.4699     4.2816    52.6616 </r>
       <r>     1.6776     4.1953    53.5332 </r>
       <r>     1.8854     4.5996    54.4887 </r>
       <r>     2.0931     6.4955    55.8382 </r>
       <r>     2.3009     9.6178    57.8363 </r>
       <r>     2.5086    14.9981    60.9521 </r>
       <r>     2.7164    19.1303    64.9264 </r>
       <r>     2.9241    22.7719    69.6572 </r>
       <r>     3.1319    27.3476    75.3386 </r>
       <r>     3.3396    29.7026    81.5093 </r>
       <r>     3.5474    29.0337    87.5410 </r>
       <r>     3.7551    29.3404    93.6364 </r>
       <r>     3.9629    30.9211   100.0602 </r>
       <r>     4.1706    29.1353   106.1131 </r>
       <r>     4.3784    24.8815   111.2821 </r>
       <r>     4.5861    26.1698   116.7189 </r>
       <r>     4.7938    35.0204   123.9943 </r>
       <r>     5.0016    41.5849   132.6335 </r>
       <r>     5.2093    39.6929   140.8797 </r>
       <r>     5.4171    37.5704   148.6849 </r>
       <r>     5.6248    36.5656   156.2813 </r>
       <r>     5.8326    36.2249   163.8070 </r>
       <r>     6.0403    38.5008   171.8055 </r>
       <r>     6.2481    41.5348   180.4343 </r>
       <r>     6.4558    39.0485   188.5465 </r>
       <r>     6.6636    35.7647   195.9766 </r>
       <r>     6.8713    31.6346   202.5486 </r>
       <r>     7.0791    24.9051   207.7226 </r>
       <r>     7.2868    18.7686   211.6217 </r>
       <r>     7.4946    16.3692   215.0224 </r>
       <r>     7.7023    15.5567   218.2543 </r>
       <r>     7.9101    16.0290   221.5843 </r>
       <r>     8.1178    18.8085   225.4917 </r>
       <r>     8.3256    21.1249   229.8804 </r>
       <r>     8.5333    20.1839   234.0736 </r>
       <r>     8.7411    14.9734   237.1843 </r>
       <r>     8.9488     9.0117   239.0564 </r>
       <r>     9.1566     3.9303   239.8729 </r>
       <r>     9.3643     0.6950   240.0173 </r>
       <r>     9.5721    -0.0718   240.0024 </r>
       <r>     9.7798    -0.0113   240.0000 </r>
       <r>     9.9876    -0.0001   240.0000 </r>
       <r>    10.1953    -0.0000   240.0000 </r>
       <r>    10.4031    -0.0000   240.0000 </r>
       <r>    10.6108    -0.0000   240.0000 </r>
       <r>    10.8186     0.0000   240.0000 </r>
       <r>    11.0263     0.0000   240.0000 </r>
       <r>    11.2341     0.0000   240.0000 </r>
       <r>    11.4418     0.0000   240.0000 </r>
       <r>    11.6495     0.0000   240.0000 </r>
       <r>    11.8573     0.0000   240.0000 </r>
       <r>    12.0650     0.0000   240.0000 </r>
      </set>
     </set>
    </array>
   </total>
  </dos>
 </calculation>
 <structure name="finalpos" >
  <crystal>
   <varray name="basis" >
    <v>      -3.19261057      -3.14437447      -3.16850272 </v>
    <v>       1.54881153       1.63935022      -7.94076695 </v>
    <v>       7.96919790      -7.94111558      -1.49186739 </v>
   </varray>
   <i name="volume">    481.20957145 </i>
   <varray name="rec_basis" >
    <v>      -0.13612414      -0.12670347      -0.05270801 </v>
    <v>       0.04253959       0.06237070      -0.10475900 </v>
    <v>       0.06268169      -0.06288152      -0.00075594 </v>
   </varray>
  </crystal>
  <varray name="positions" >
   <v>       0.96119374       0.93308211       0.39423555 </v>
   <v>       0.62797797       0.26624952       0.40086898 </v>
   <v>       0.51014908       0.00357820      -0.00288359 </v>
   <v>       0.00905454      -0.00746922       0.00321204 </v>
   <v>       0.09754261       0.20286312       0.80059683 </v>
   <v>       0.03914459       0.06815964       0.59715623 </v>
   <v>       0.89904707       0.79631563       0.20248194 </v>
   <v>       0.80234762       0.59423941       0.39789221 </v>
   <v>       0.73279943       0.46511217       0.19795189 </v>
   <v>       0.65879180       0.35188042      -0.00184668 </v>
   <v>       0.36796113       0.72671276       0.60221718 </v>
   <v>       0.12757865       0.27270143       0.40086685 </v>
   <v>       0.84628304       0.66374088       0.00268772 </v>
   <v>       0.92274255       0.87266434       0.79569271 </v>
   <v>       0.56484049       0.13459360       0.19587458 </v>
   <v>       0.40470344       0.78581765       0.18909499 </v>
   <v>       0.43782668       0.85235883       0.80207374 </v>
   <v>       0.30066433       0.60274678       0.40110494 </v>
   <v>       0.85584895       0.73407188       0.59682668 </v>
   <v>       0.46378467       0.92838645       0.40597821 </v>
   <v>       0.16728214       0.33025148       0.00369280 </v>
   <v>       0.27709972       0.53486089       0.80550079 </v>
   <v>       0.19745898       0.39581372       0.59701906 </v>
   <v>       0.06177112       0.14495528       0.20654596 </v>
   <v>       0.77903153       0.52712042       0.80154537 </v>
   <v>       0.68970223       0.40871838       0.60426390 </v>
   <v>       0.59686817       0.20458040       0.79813440 </v>
   <v>       0.53659592       0.06795501       0.60398023 </v>
   <v>       0.23057449       0.47127217       0.19723452 </v>
  </varray>
 </structure>
</modeling>
