SQS with 1 vacancy for VFE and VRV      
           1
    -3.190000   -3.190000   -3.190000
     1.595000    1.595000   -7.975000
     7.975000   -7.975000   -1.595000
   Nb   Mo   Ta   Ti   W 
   6   6   6   6   5
Direct configuration=     1
   0.96666667  0.93333333  0.40000000
   0.63333333  0.26666667  0.40000000
   0.50000000  0.00000000  0.00000000
   0.00000000  0.00000000  0.00000000
   0.10000000  0.20000000  0.80000000
   0.03333333  0.06666667  0.60000000
   0.90000000  0.80000000  0.20000000
   0.80000000  0.60000000  0.40000000
   0.73333333  0.46666667  0.20000000
   0.66666667  0.33333333  0.00000000
   0.36666667  0.73333333  0.60000000
   0.13333333  0.26666667  0.40000000
   0.83333333  0.66666667  0.00000000
   0.93333333  0.86666667  0.80000000
   0.56666667  0.13333333  0.20000000
   0.40000000  0.80000000  0.20000000
   0.43333333  0.86666667  0.80000000
   0.30000000  0.60000000  0.40000000
   0.86666667  0.73333333  0.60000000
   0.46666667  0.93333333  0.40000000
   0.16666667  0.33333333  0.00000000
   0.26666667  0.53333333  0.80000000
   0.20000000  0.40000000  0.60000000
   0.06666667  0.13333333  0.20000000
   0.76666667  0.53333333  0.80000000
   0.70000000  0.40000000  0.60000000
   0.60000000  0.20000000  0.80000000
   0.53333333  0.06666667  0.60000000
   0.23333333  0.46666667  0.20000000
SQS with 1 vacancy for VFE and VRV      
           1
    -3.160154   -3.136433   -3.144998
     1.557959    1.592608   -7.864767
     7.890087   -7.869164   -1.534120
   Nb   Mo   Ta   Ti   W 
   6   6   6   6   5
Direct configuration=     2
   0.96568055  0.93259824  0.39742215
   0.63246702  0.26630387  0.40060554
   0.50156203  0.00261536 -0.00034610
   0.00080356 -0.00267707  0.00131791
   0.09775078  0.20395437  0.79969980
   0.03695785  0.06672756  0.59856845
   0.90051814  0.79794520  0.20223886
   0.80233254  0.59631417  0.39884932
   0.73331502  0.46669417  0.19860449
   0.66535617  0.33905841 -0.00053606
   0.36876062  0.73012388  0.60099642
   0.13198442  0.27013049  0.39958846
   0.83260367  0.66386644  0.00221888
   0.92721312  0.86957587  0.79911202
   0.56581408  0.13401529  0.19746925
   0.40328670  0.79381043  0.19701521
   0.43899310  0.86000409  0.79867410
   0.30036548  0.60179105  0.40107238
   0.86278582  0.73351780  0.59978033
   0.46525523  0.93245621  0.40341822
   0.16708381  0.33200267  0.00140231
   0.26869454  0.53404603  0.80009517
   0.20102008  0.39679583  0.59864394
   0.06581178  0.13776177  0.20202836
   0.77029859  0.52874622  0.80027105
   0.69511750  0.40611493  0.60253596
   0.59794044  0.20200930  0.79854656
   0.53549634  0.06810121  0.60140004
   0.23139770  0.46892953  0.19930696
SQS with 1 vacancy for VFE and VRV      
           1
    -3.168106   -3.150706   -3.156988
     1.567828    1.593245   -7.894138
     7.912712   -7.897363   -1.550341
   Nb   Mo   Ta   Ti   W 
   6   6   6   6   5
Direct configuration=     3
   0.96595034  0.93279906  0.39811816
   0.63270014  0.26640131  0.40044281
   0.50114045  0.00190944 -0.00025495
   0.00058516 -0.00195542  0.00096377
   0.09835798  0.20288696  0.79977932
   0.03598118  0.06671230  0.59895299
   0.90037548  0.79849801  0.20163611
   0.80170477  0.59731037  0.39916087
   0.73332184  0.46668799  0.19898081
   0.66571003  0.33751307 -0.00039437
   0.36819432  0.73098953  0.60072877
   0.13234875  0.26919561  0.39969794
   0.83279802  0.66462058  0.00162247
   0.92886636  0.86879131  0.79935224
   0.56604759  0.13383344  0.19815167
   0.40240408  0.79548429  0.19782247
   0.43746761  0.86180411  0.79903332
   0.30026514  0.60130647  0.40078198
   0.86383388  0.73346829  0.59984104
   0.46563181  0.93269003  0.40249751
   0.16696947  0.33236070  0.00102477
   0.26814683  0.53385345  0.80006826
   0.20074688  0.39766219  0.59901112
   0.06603933  0.13656424  0.20147908
   0.76931820  0.52998447  0.80019920
   0.69643158  0.40446167  0.60185043
   0.59849821  0.20146812  0.79893816
   0.53491030  0.06771255  0.60102076
   0.23192096  0.46831920  0.19949330
SQS with 1 vacancy for VFE and VRV      
           1
    -3.191099   -3.151753   -3.167051
     1.559834    1.615435   -7.921476
     7.961224   -7.924945   -1.521430
   Nb   Mo   Ta   Ti   W 
   6   6   6   6   5
Direct configuration=     4
   0.96480129  0.93226447  0.39569793
   0.63184620  0.26614545  0.40076535
   0.50252019  0.00392952 -0.00083103
   0.00237730 -0.00486798  0.00223117
   0.09672681  0.20578533  0.79960168
   0.03918978  0.06698122  0.59769618
   0.90071965  0.79677506  0.20341071
   0.80374603  0.59431038  0.39825807
   0.73316673  0.46626796  0.19774081
   0.66363355  0.34355641 -0.00093326
   0.37000002  0.72801264  0.60159434
   0.13089864  0.27214043  0.39955102
   0.83250048  0.66223261  0.00358747
   0.92445833  0.87101944  0.79857355
   0.56528541  0.13441551  0.19609868
   0.40496878  0.78994243  0.19472919
   0.44116276  0.85570245  0.79845891
   0.30085955  0.60267614  0.40196001
   0.86036321  0.73362128  0.59949210
   0.46453659  0.93176102  0.40553103
   0.16751291  0.33125643  0.00232725
   0.27022562  0.53463161  0.80054430
   0.20118975  0.39516685  0.59764544
   0.06515760  0.14076589  0.20341350
   0.77273370  0.52620917  0.80061458
   0.69219761  0.40968069  0.60389471
   0.59653949  0.20345702  0.79777856
   0.53699600  0.06885575  0.60226647
   0.23035272  0.47063818  0.19830131
SQS with 1 vacancy for VFE and VRV      
           1
    -3.198020   -3.152068   -3.170080
     1.557428    1.622114   -7.929705
     7.975826   -7.933247   -1.512728
   Nb   Mo   Ta   Ti   W 
   6   6   6   6   5
Direct configuration=     5
   0.96445332  0.93210223  0.39497215
   0.63159058  0.26606901  0.40086148
   0.50293328  0.00453468 -0.00100188
   0.00291619 -0.00574018  0.00260991
   0.09623771  0.20665416  0.79954943
   0.04015015  0.06706080  0.59732117
   0.90082517  0.79625995  0.20394147
   0.80435659  0.59341019  0.39798676
   0.73311846  0.46614101  0.19736905
   0.66301068  0.34536785 -0.00109212
   0.37054241  0.72712083  0.60185268
   0.13046386  0.27302321  0.39950808
   0.83241380  0.66151827  0.00417463
   0.92313567  0.87168684  0.79833973
   0.56505405  0.13458835  0.19548370
   0.40573302  0.78827837  0.19380048
   0.44226944  0.85387262  0.79828490
   0.30103954  0.60308775  0.40231392
   0.85932204  0.73366688  0.59938623
   0.46421233  0.93148497  0.40643877
   0.16767758  0.33092642  0.00271701
   0.27084968  0.53486528  0.80068820
   0.20132043  0.39441759  0.59723511
   0.06489626  0.14202717  0.20399499
   0.77375811  0.52507761  0.80073827
   0.69093134  0.41124710  0.60450830
   0.59595072  0.20405237  0.79743151
   0.53762323  0.06919949  0.60264115
   0.22988101  0.47133247  0.19794491
SQS with 1 vacancy for VFE and VRV      
           1
    -3.200163   -3.153284   -3.173808
     1.558182    1.624684   -7.940672
     7.982896   -7.939643   -1.512928
   Nb   Mo   Ta   Ti   W 
   6   6   6   6   5
Direct configuration=     6
   0.96388015  0.93234214  0.39487677
   0.63129807  0.26632765  0.40057648
   0.50384532  0.00395723 -0.00174923
   0.00391266 -0.00631491  0.00281194
   0.09688992  0.20515979  0.79969824
   0.04002878  0.06753423  0.59733941
   0.90030566  0.79626400  0.20355551
   0.80443059  0.59375623  0.39813650
   0.73272875  0.46541803  0.19766462
   0.66207372  0.34623627 -0.00134913
   0.36996177  0.72722749  0.60185247
   0.13014974  0.27297630  0.39976172
   0.83287584  0.66224782  0.00402669
   0.92374223  0.87175969  0.79826061
   0.56520205  0.13483284  0.19573846
   0.40528786  0.78801558  0.19319784
   0.44060704  0.85387936  0.79906083
   0.30169527  0.60271959  0.40227216
   0.85928851  0.73369218  0.59908126
   0.46443350  0.93117629  0.40640939
   0.16776361  0.33100770  0.00285207
   0.27159861  0.53485661  0.80123951
   0.20058756  0.39481233  0.59688681
   0.06438803  0.14254335  0.20438317
   0.77436331  0.52602774  0.80110083
   0.69112689  0.41029637  0.60410323
   0.59617924  0.20412768  0.79763501
   0.53791283  0.06892909  0.60292855
   0.23010915  0.47152466  0.19764828
SQS with 1 vacancy for VFE and VRV      
           1
    -3.202075   -3.154368   -3.177134
     1.558855    1.626976   -7.950455
     7.989202   -7.945349   -1.513106
   Nb   Mo   Ta   Ti   W 
   6   6   6   6   5
Direct configuration=     7
   0.96336918  0.93255596  0.39479176
   0.63103725  0.26655808  0.40032250
   0.50465829  0.00344262 -0.00241531
   0.00480101 -0.00682706  0.00299199
   0.09747153  0.20382853  0.79983075
   0.03992053  0.06795598  0.59735569
   0.89984251  0.79626767  0.20321151
   0.80449652  0.59406446  0.39826999
   0.73238149  0.46477411  0.19792795
   0.66123836  0.34701001 -0.00157814
   0.36944418  0.72732261  0.60185227
   0.12986977  0.27293460  0.39998775
   0.83328759  0.66289759  0.00389494
   0.92428290  0.87182444  0.79819012
   0.56533398  0.13505062  0.19596554
   0.40489101  0.78778154  0.19266071
   0.43912527  0.85388576  0.79975228
   0.30227984  0.60239151  0.40223495
   0.85925859  0.73371470  0.59880947
   0.46463069  0.93090127  0.40638319
   0.16784030  0.33108009  0.00297244
   0.27226628  0.53484877  0.80173089
   0.19993418  0.39516408  0.59657640
   0.06393498  0.14300327  0.20472915
   0.77490271  0.52687399  0.80142406
   0.69130128  0.40944941  0.60374214
   0.59638296  0.20419473  0.79781639
   0.53817105  0.06868818  0.60318467
   0.23031244  0.47169580  0.19738394
SQS with 1 vacancy for VFE and VRV      
           1
    -3.196350   -3.147674   -3.172449
     1.555206    1.626077   -7.940397
     7.976579   -7.932746   -1.508320
   Nb   Mo   Ta   Ti   W 
   6   6   6   6   5
Direct configuration=     8
   0.96289931  0.93276674  0.39466353
   0.63070730  0.26668403  0.40019278
   0.50557083  0.00313418 -0.00288778
   0.00574722 -0.00740162  0.00321338
   0.09779430  0.20286763  0.79999267
   0.03991447  0.06826459  0.59734670
   0.89936796  0.79621317  0.20292074
   0.80454276  0.59427586  0.39834785
   0.73210980  0.46442170  0.19810470
   0.66049215  0.34786890 -0.00183839
   0.36907297  0.72731864  0.60191280
   0.12960827  0.27293887  0.40016929
   0.83400230  0.66340680  0.00381965
   0.92430316  0.87202473  0.79795308
   0.56535022  0.13515187  0.19602337
   0.40450143  0.78748074  0.19208173
   0.43800656  0.85374995  0.80036289
   0.30262081  0.60228348  0.40205776
   0.85908005  0.73376009  0.59852485
   0.46476496  0.93052842  0.40638988
   0.16784556  0.33110379  0.00308142
   0.27314568  0.53481744  0.80228716
   0.19931412  0.39541067  0.59631762
   0.06347559  0.14354040  0.20514874
   0.77560772  0.52734202  0.80165224
   0.69139957  0.40881414  0.60356934
   0.59665217  0.20424425  0.79792270
   0.53835856  0.06847872  0.60347982
   0.23041086  0.47184314  0.19718949
SQS with 1 vacancy for VFE and VRV      
           1
    -3.194263   -3.145234   -3.170741
     1.553876    1.625749   -7.936731
     7.971977   -7.928153   -1.506575
   Nb   Mo   Ta   Ti   W 
   6   6   6   6   5
Direct configuration=     9
   0.96272770  0.93284368  0.39461672
   0.63058680  0.26673000  0.40014542
   0.50590408  0.00302151 -0.00306028
   0.00609281 -0.00761136  0.00329420
   0.09791222  0.20251691  0.80005172
   0.03991225  0.06837722  0.59734343
   0.89919465  0.79619329  0.20281457
   0.80455964  0.59435302  0.39837629
   0.73201060  0.46429311  0.19816920
   0.66021959  0.34818240 -0.00193337
   0.36893740  0.72731723  0.60193489
   0.12951279  0.27294046  0.40023557
   0.83426330  0.66359259  0.00379221
   0.92431055  0.87209781  0.79786655
   0.56535615  0.13518883  0.19604449
   0.40435914  0.78737093  0.19187032
   0.43759804  0.85370051  0.80058579
   0.30274533  0.60224402  0.40199308
   0.85901483  0.73377665  0.59842094
   0.46481401  0.93039233  0.40639230
   0.16784749  0.33111245  0.00312121
   0.27346686  0.53480599  0.80249027
   0.19908765  0.39550068  0.59622314
   0.06330782  0.14373651  0.20530195
   0.77586519  0.52751282  0.80173560
   0.69143548  0.40858226  0.60350621
   0.59675049  0.20426231  0.79796152
   0.53842705  0.06840228  0.60358757
   0.23044679  0.47189689  0.19711851
SQS with 1 vacancy for VFE and VRV      
           1
    -3.194058   -3.144411   -3.170466
     1.553022    1.627730   -7.937671
     7.972435   -7.929439   -1.504091
   Nb   Mo   Ta   Ti   W 
   6   6   6   6   5
Direct configuration=    10
   0.96256453  0.93295194  0.39453807
   0.63033628  0.26666463  0.40021454
   0.50637480  0.00313103 -0.00301457
   0.00668814 -0.00796434  0.00342953
   0.09784514  0.20248387  0.80017341
   0.04002283  0.06835818  0.59730874
   0.89896061  0.79615729  0.20274320
   0.80447942  0.59439299  0.39834447
   0.73201991  0.46444119  0.19814436
   0.65988449  0.34873560 -0.00205886
   0.36889925  0.72724630  0.60202121
   0.12942675  0.27293382  0.40027848
   0.83511881  0.66362223  0.00377061
   0.92381928  0.87223864  0.79756388
   0.56526108  0.13510348  0.19590403
   0.40418006  0.78717755  0.19150611
   0.43747268  0.85346044  0.80086959
   0.30258442  0.60239821  0.40179665
   0.85876839  0.73380054  0.59826017
   0.46478463  0.93008956  0.40640796
   0.16773779  0.33107321  0.00314261
   0.27411393  0.53478523  0.80287717
   0.19883448  0.39556038  0.59618967
   0.06307485  0.14405244  0.20554697
   0.77640992  0.52733656  0.80172544
   0.69136903  0.40853560  0.60361241
   0.59686391  0.20430619  0.79796834
   0.53839037  0.06832848  0.60369941
   0.23038092  0.47193211  0.19703641
SQS with 1 vacancy for VFE and VRV      
           1
    -3.193441   -3.141944   -3.169643
     1.550459    1.633672   -7.940490
     7.973809   -7.933297   -1.496637
   Nb   Mo   Ta   Ti   W 
   6   6   6   6   5
Direct configuration=    11
   0.96207497  0.93327658  0.39430217
   0.62958461  0.26646864  0.40042178
   0.50778721  0.00345951 -0.00287736
   0.00847431 -0.00902301  0.00383536
   0.09764386  0.20238490  0.80053839
   0.04035461  0.06830101  0.59720468
   0.89825837  0.79604926  0.20252907
   0.80423873  0.59451285  0.39824905
   0.73204788  0.46488530  0.19806994
   0.65887916  0.35039481 -0.00243505
   0.36878476  0.72703364  0.60228009
   0.12916860  0.27291398  0.40040721
   0.83768573  0.66371103  0.00370592
   0.92234527  0.87266081  0.79665599
   0.56497580  0.13484734  0.19548266
   0.40364266  0.78659716  0.19041348
   0.43709650  0.85274066  0.80172074
   0.30210164  0.60286051  0.40120751
   0.85802896  0.73387208  0.59777791
   0.46469640  0.92918144  0.40645475
   0.16740863  0.33095552  0.00320678
   0.27605543  0.53472327  0.80403781
   0.19807488  0.39573944  0.59608926
   0.06237593  0.14500033  0.20628210
   0.77804432  0.52680781  0.80169495
   0.69116964  0.40839578  0.60393091
   0.59720424  0.20443778  0.79798885
   0.53828028  0.06810722  0.60403487
   0.23018327  0.47203766  0.19679018
SQS with 1 vacancy for VFE and VRV      
           1
    -3.194350   -3.144253   -3.170317
     1.551623    1.634546   -7.942583
     7.976234   -7.938340   -1.497892
   Nb   Mo   Ta   Ti   W 
   6   6   6   6   5
Direct configuration=    12
   0.96207032  0.93322067  0.39431847
   0.62948120  0.26647896  0.40043778
   0.50790639  0.00358780 -0.00276963
   0.00828402 -0.00887090  0.00370891
   0.09772214  0.20262517  0.80051908
   0.04028913  0.06817370  0.59722480
   0.89838552  0.79611840  0.20268203
   0.80392790  0.59441724  0.39814704
   0.73213964  0.46499292  0.19803451
   0.65901022  0.35042556 -0.00232885
   0.36888169  0.72690681  0.60229357
   0.12906169  0.27292540  0.40042314
   0.83848433  0.66354616  0.00350588
   0.92235446  0.87260679  0.79659123
   0.56499547  0.13486496  0.19550413
   0.40381070  0.78657166  0.19035279
   0.43738928  0.85260617  0.80170711
   0.30190987  0.60289133  0.40128289
   0.85781971  0.73386122  0.59770082
   0.46458336  0.92911946  0.40641005
   0.16725570  0.33092952  0.00322718
   0.27615539  0.53474121  0.80413625
   0.19831687  0.39569789  0.59622581
   0.06229552  0.14497933  0.20626479
   0.77809896  0.52675310  0.80159722
   0.69084478  0.40865161  0.60400186
   0.59694325  0.20447516  0.79799432
   0.53806893  0.06815891  0.60396878
   0.23018023  0.47187709  0.19683805
SQS with 1 vacancy for VFE and VRV      
           1
    -3.194973   -3.145836   -3.170779
     1.552422    1.635145   -7.944018
     7.977897   -7.941800   -1.498753
   Nb   Mo   Ta   Ti   W 
   6   6   6   6   5
Direct configuration=    13
   0.96206713  0.93318234  0.39432965
   0.62941029  0.26648603  0.40044875
   0.50798809  0.00367580 -0.00269576
   0.00815359 -0.00876661  0.00362222
   0.09777584  0.20278994  0.80050583
   0.04024421  0.06808640  0.59723860
   0.89847267  0.79616584  0.20278690
   0.80371479  0.59435165  0.39807711
   0.73220258  0.46506673  0.19801021
   0.65910006  0.35044666 -0.00225605
   0.36894813  0.72681984  0.60230280
   0.12898837  0.27293323  0.40043407
   0.83903195  0.66343314  0.00336868
   0.92236077  0.87256975  0.79654683
   0.56500895  0.13487704  0.19551885
   0.40392594  0.78655418  0.19031117
   0.43759003  0.85251395  0.80169775
   0.30177837  0.60291245  0.40133459
   0.85767626  0.73385376  0.59764796
   0.46450585  0.92907694  0.40637940
   0.16715084  0.33091168  0.00324118
   0.27622390  0.53475353  0.80420374
   0.19848276  0.39566943  0.59631942
   0.06224039  0.14496493  0.20625293
   0.77813644  0.52671558  0.80153020
   0.69062203  0.40882704  0.60405053
   0.59676429  0.20450077  0.79799809
   0.53792403  0.06819434  0.60392347
   0.23017811  0.47176697  0.19687087
SQS with 1 vacancy for VFE and VRV      
           1
    -3.193888   -3.145580   -3.169558
     1.552063    1.635231   -7.941346
     7.974930   -7.940875   -1.498192
   Nb   Mo   Ta   Ti   W 
   6   6   6   6   5
Direct configuration=    14
   0.96202687  0.93314992  0.39434046
   0.62930194  0.26647991  0.40047884
   0.50813774  0.00376636 -0.00264607
   0.00807203 -0.00864763  0.00354209
   0.09778439  0.20293397  0.80050058
   0.04016743  0.06802745  0.59724733
   0.89856307  0.79620278  0.20286717
   0.80348904  0.59429119  0.39801103
   0.73228061  0.46513498  0.19798044
   0.65917619  0.35050765 -0.00218245
   0.36898521  0.72673888  0.60230616
   0.12886482  0.27294037  0.40044828
   0.83973599  0.66335796  0.00323752
   0.92235258  0.87254904  0.79647357
   0.56501723  0.13488609  0.19554847
   0.40408518  0.78651233  0.19023357
   0.43777165  0.85243643  0.80170643
   0.30160360  0.60292491  0.40135924
   0.85748499  0.73386017  0.59755929
   0.46441905  0.92901263  0.40634043
   0.16705330  0.33086144  0.00328075
   0.27632901  0.53475867  0.80431270
   0.19858727  0.39564182  0.59641909
   0.06215592  0.14496473  0.20625090
   0.77821232  0.52667475  0.80146270
   0.69041859  0.40897692  0.60411032
   0.59665053  0.20452250  0.79800079
   0.53776233  0.06821205  0.60389439
   0.23017779  0.47165507  0.19691598
SQS with 1 vacancy for VFE and VRV      
           1
    -3.192005   -3.145136   -3.167441
     1.551439    1.635379   -7.936710
     7.969781   -7.939271   -1.497220
   Nb   Mo   Ta   Ti   W 
   6   6   6   6   5
Direct configuration=    15
   0.96195699  0.93309365  0.39435923
   0.62911386  0.26646929  0.40053106
   0.50839749  0.00392357 -0.00255983
   0.00793050 -0.00844113  0.00340303
   0.09779926  0.20318397  0.80049148
   0.04003415  0.06792511  0.59726249
   0.89871994  0.79626694  0.20300650
   0.80309724  0.59418620  0.39789636
   0.73241607  0.46525344  0.19792877
   0.65930830  0.35061355 -0.00205471
   0.36904954  0.72659834  0.60231198
   0.12865036  0.27295275  0.40047296
   0.84095804  0.66322752  0.00300981
   0.92233840  0.87251308  0.79634641
   0.56503157  0.13490181  0.19559988
   0.40436161  0.78643967  0.19009885
   0.43808687  0.85230189  0.80172146
   0.30130025  0.60294651  0.40140204
   0.85715305  0.73387126  0.59740541
   0.46426839  0.92890099  0.40627278
   0.16688397  0.33077424  0.00334942
   0.27651141  0.53476762  0.80450180
   0.19876860  0.39559393  0.59659206
   0.06200930  0.14496436  0.20624739
   0.77834406  0.52660388  0.80134552
   0.69006548  0.40923706  0.60421414
   0.59645309  0.20456019  0.79800550
   0.53748167  0.06824276  0.60384392
   0.23017721  0.47146085  0.19699427
SQS with 1 vacancy for VFE and VRV      
           1
    -3.191913   -3.145369   -3.167270
     1.551552    1.636212   -7.937148
     7.969531   -7.940166   -1.496815
   Nb   Mo   Ta   Ti   W 
   6   6   6   6   5
Direct configuration=    16
   0.96185960  0.93307918  0.39437369
   0.62893715  0.26644938  0.40058393
   0.50863279  0.00393761 -0.00256792
   0.00799996 -0.00829705  0.00333804
   0.09773548  0.20323104  0.80049112
   0.03989320  0.06792852  0.59726607
   0.89880400  0.79629201  0.20299377
   0.80289596  0.59417092  0.39786184
   0.73250075  0.46527103  0.19790874
   0.65928627  0.35075991 -0.00198623
   0.36895710  0.72657730  0.60230590
   0.12846938  0.27293075  0.40052526
   0.84190623  0.66324681  0.00290250
   0.92242927  0.87249801  0.79621961
   0.56502252  0.13488726  0.19566797
   0.40445956  0.78641089  0.18995823
   0.43809619  0.85228996  0.80176947
   0.30109197  0.60291310  0.40138693
   0.85693663  0.73389201  0.59728122
   0.46418195  0.92881644  0.40621702
   0.16686051  0.33067659  0.00340086
   0.27662326  0.53477582  0.80467244
   0.19870945  0.39560090  0.59670192
   0.06193942  0.14495118  0.20626664
   0.77846694  0.52662677  0.80130811
   0.68997543  0.40924035  0.60424727
   0.59649014  0.20456614  0.79802445
   0.53729241  0.06822026  0.60383688
   0.23021314  0.47139024  0.19704427
SQS with 1 vacancy for VFE and VRV      
           1
    -3.191637   -3.146067   -3.166758
     1.551889    1.638712   -7.938463
     7.968784   -7.942850   -1.495599
   Nb   Mo   Ta   Ti   W 
   6   6   6   6   5
Direct configuration=    17
   0.96156742  0.93303578  0.39441707
   0.62840700  0.26638968  0.40074254
   0.50933868  0.00397974 -0.00259219
   0.00820841 -0.00786487  0.00314306
   0.09754415  0.20337220  0.80049006
   0.03947035  0.06793872  0.59727682
   0.89905620  0.79636722  0.20295559
   0.80229212  0.59412503  0.39775829
   0.73275482  0.46532378  0.19784865
   0.65922019  0.35119897 -0.00178075
   0.36867977  0.72651417  0.60228767
   0.12792643  0.27286478  0.40068219
   0.84475084  0.66330470  0.00258054
   0.92270192  0.87245278  0.79583918
   0.56499533  0.13484365  0.19587223
   0.40475347  0.78632452  0.18953636
   0.43812411  0.85225417  0.80191348
   0.30046715  0.60281285  0.40134158
   0.85628745  0.73395420  0.59690868
   0.46392261  0.92856281  0.40604973
   0.16679009  0.33038370  0.00355514
   0.27695874  0.53480048  0.80518435
   0.19853198  0.39562182  0.59703150
   0.06172975  0.14491164  0.20632438
   0.77883560  0.52669542  0.80119587
   0.68970527  0.40925020  0.60434668
   0.59660131  0.20458400  0.79808130
   0.53672462  0.06815276  0.60381576
   0.23032090  0.47117846  0.19719424
SQS with 1 vacancy for VFE and VRV      
           1
    -3.191594   -3.145118   -3.167045
     1.550736    1.638642   -7.938463
     7.967989   -7.941176   -1.494323
   Nb   Mo   Ta   Ti   W 
   6   6   6   6   5
Direct configuration=    18
   0.96145316  0.93305112  0.39437371
   0.62827282  0.26635344  0.40078650
   0.50958693  0.00383301 -0.00269739
   0.00848693 -0.00775816  0.00316669
   0.09753199  0.20318967  0.80051522
   0.03936128  0.06802558  0.59723502
   0.89905669  0.79634634  0.20279081
   0.80230627  0.59417295  0.39780435
   0.73274993  0.46525582  0.19787932
   0.65907808  0.35140455 -0.00180230
   0.36843912  0.72658683  0.60226247
   0.12780888  0.27281307  0.40074240
   0.84521753  0.66346345  0.00260912
   0.92270310  0.87250377  0.79579820
   0.56494151  0.13476704  0.19588825
   0.40472747  0.78618332  0.18940783
   0.43803177  0.85229808  0.80197109
   0.30053183  0.60279259  0.40126190
   0.85615819  0.73399318  0.59687612
   0.46388831  0.92851407  0.40602640
   0.16693745  0.33033791  0.00359942
   0.27699275  0.53482284  0.80528936
   0.19818932  0.39568340  0.59703210
   0.06175230  0.14492098  0.20639096
   0.77889077  0.52685326  0.80130736
   0.68975625  0.40905206  0.60430583
   0.59672238  0.20456663  0.79810265
   0.53669059  0.06808164  0.60387089
   0.23040308  0.47122487  0.19720573
SQS with 1 vacancy for VFE and VRV      
           1
    -3.191503   -3.143089   -3.167658
     1.548275    1.638492   -7.938464
     7.966293   -7.937600   -1.491596
   Nb   Mo   Ta   Ti   W 
   6   6   6   6   5
Direct configuration=    19
   0.96120908  0.93308390  0.39428108
   0.62798626  0.26627608  0.40088037
   0.51011716  0.00351958 -0.00292206
   0.00908180 -0.00753029  0.00321720
   0.09750609  0.20279983  0.80056893
   0.03912826  0.06821110  0.59714574
   0.89905770  0.79630173  0.20243885
   0.80233650  0.59427530  0.39790273
   0.73273953  0.46511068  0.19794484
   0.65877447  0.35184366 -0.00184832
   0.36792510  0.72674206  0.60220862
   0.12755785  0.27270267  0.40087100
   0.84621426  0.66380240  0.00267023
   0.92270558  0.87261268  0.79571067
   0.56482658  0.13460343  0.19592244
   0.40467195  0.78588173  0.18913329
   0.43783454  0.85239190  0.80209415
   0.30066994  0.60274929  0.40109172
   0.85588210  0.73407645  0.59680655
   0.46381506  0.92841000  0.40597654
   0.16725224  0.33024009  0.00369400
   0.27706541  0.53487062  0.80551367
   0.19745741  0.39581498  0.59703336
   0.06180048  0.14494094  0.20653319
   0.77900859  0.52719038  0.80154552
   0.68986519  0.40862887  0.60421856
   0.59698098  0.20452952  0.79814825
   0.53661796  0.06792978  0.60398862
   0.23057860  0.47132399  0.19723027
SQS with 1 vacancy for VFE and VRV      
           1
    -3.193830   -3.145790   -3.169433
     1.549402    1.640296   -7.943303
     7.972397   -7.944987   -1.492166
   Nb   Mo   Ta   Ti   W 
   6   6   6   6   5
Direct configuration=    20
   0.96117689  0.93308013  0.39418550
   0.62796885  0.26622031  0.40085644
   0.51018417  0.00364268 -0.00284130
   0.00902459 -0.00740207  0.00320636
   0.09758278  0.20293274  0.80062750
   0.03916252  0.06810306  0.59716775
   0.89903536  0.79633093  0.20252931
   0.80235983  0.59419995  0.39788064
   0.73286528  0.46511382  0.19795964
   0.65881086  0.35192084 -0.00184487
   0.36800073  0.72668054  0.60222659
   0.12760152  0.27270007  0.40086229
   0.84635863  0.66367323  0.00270694
   0.92278323  0.87272114  0.79567297
   0.56485579  0.13458277  0.19582195
   0.40473806  0.78574718  0.18905288
   0.43781804  0.85232244  0.80205129
   0.30065815  0.60274403  0.40111947
   0.85581249  0.73406687  0.59684880
   0.46375124  0.92836054  0.40598005
   0.16731500  0.33026402  0.00369148
   0.27713745  0.53485019  0.80548662
   0.19746072  0.39581232  0.59700334
   0.06173884  0.14497105  0.20656001
   0.77905674  0.52704348  0.80154520
   0.68952308  0.40881679  0.60431375
   0.59674416  0.20463634  0.79811919
   0.53657171  0.06798274  0.60397101
   0.23056995  0.47121519  0.19723918
SQS with 1 vacancy for VFE and VRV      
           1
    -3.192611   -3.144374   -3.168503
     1.548812    1.639350   -7.940767
     7.969198   -7.941116   -1.491867
   Nb   Mo   Ta   Ti   W 
   6   6   6   6   5
Direct configuration=    21
   0.96119374  0.93308211  0.39423555
   0.62797797  0.26624952  0.40086898
   0.51014908  0.00357820 -0.00288359
   0.00905454 -0.00746922  0.00321204
   0.09754261  0.20286312  0.80059683
   0.03914459  0.06815964  0.59715623
   0.89904707  0.79631563  0.20248194
   0.80234762  0.59423941  0.39789221
   0.73279943  0.46511217  0.19795189
   0.65879180  0.35188042 -0.00184668
   0.36796113  0.72671276  0.60221718
   0.12757865  0.27270143  0.40086685
   0.84628304  0.66374088  0.00268772
   0.92274255  0.87266434  0.79569271
   0.56484049  0.13459360  0.19587458
   0.40470344  0.78581765  0.18909499
   0.43782668  0.85235883  0.80207374
   0.30066433  0.60274678  0.40110494
   0.85584895  0.73407188  0.59682668
   0.46378467  0.92838645  0.40597821
   0.16728214  0.33025148  0.00369280
   0.27709972  0.53486089  0.80550079
   0.19745898  0.39581372  0.59701906
   0.06177112  0.14495528  0.20654596
   0.77903153  0.52712042  0.80154537
   0.68970223  0.40871838  0.60426390
   0.59686817  0.20458040  0.79813440
   0.53659592  0.06795501  0.60398023
   0.23057449  0.47127217  0.19723452
