  29  29   0   0
  0.1632129E+02  0.5473281E-09  0.8209921E-09  0.1128346E-08  0.5000000E-15
  1.000000000000000E-004
  CAR 
 Nb - Mo - Ta - Ti - V SQS               
     11.65155041    -50.53616766  301      6.63461348      1.00000000
    -50.536  0.0000E+00  0.0000E+00
    -50.329  0.0000E+00  0.0000E+00
    -50.122  0.0000E+00  0.0000E+00
    -49.914  0.0000E+00  0.0000E+00
    -49.707  0.0000E+00  0.0000E+00
    -49.500 -0.7529E-35 -0.1561E-35
    -49.292 -0.2611E-27 -0.5412E-28
    -49.085 -0.1038E-20 -0.2152E-21
    -48.878 -0.4598E-15 -0.9530E-16
    -48.671 -0.2307E-10 -0.4783E-11
    -48.463 -0.1279E-06 -0.2652E-07
    -48.256 -0.7357E-04 -0.1528E-04
    -48.049 -0.3532E-02 -0.7475E-03
    -47.841  0.1257E-01  0.1858E-02
    -47.634  0.1235E+00  0.2746E-01
    -47.427  0.2251E+00  0.7413E-01
    -47.219  0.5436E+00  0.1868E+00
    -47.012  0.2549E+00  0.2396E+00
    -46.805  0.6920E-02  0.2411E+00
    -46.598 -0.5116E-02  0.2400E+00
    -46.390 -0.1150E-03  0.2400E+00
    -46.183 -0.2373E-06  0.2400E+00
    -45.976 -0.5215E-10  0.2400E+00
    -45.768 -0.1267E-14  0.2400E+00
    -45.561  0.0000E+00  0.2400E+00
    -45.354  0.0000E+00  0.2400E+00
    -45.147  0.0000E+00  0.2400E+00
    -44.939  0.0000E+00  0.2400E+00
    -44.732  0.0000E+00  0.2400E+00
    -44.525  0.0000E+00  0.2400E+00
    -44.317  0.0000E+00  0.2400E+00
    -44.110  0.0000E+00  0.2400E+00
    -43.903  0.0000E+00  0.2400E+00
    -43.696  0.0000E+00  0.2400E+00
    -43.488  0.0000E+00  0.2400E+00
    -43.281  0.0000E+00  0.2400E+00
    -43.074  0.0000E+00  0.2400E+00
    -42.866  0.0000E+00  0.2400E+00
    -42.659  0.0000E+00  0.2400E+00
    -42.452  0.0000E+00  0.2400E+00
    -42.244  0.0000E+00  0.2400E+00
    -42.037  0.0000E+00  0.2400E+00
    -41.830  0.0000E+00  0.2400E+00
    -41.623  0.0000E+00  0.2400E+00
    -41.415  0.0000E+00  0.2400E+00
    -41.208  0.0000E+00  0.2400E+00
    -41.001  0.0000E+00  0.2400E+00
    -40.793  0.0000E+00  0.2400E+00
    -40.586  0.0000E+00  0.2400E+00
    -40.379  0.0000E+00  0.2400E+00
    -40.172  0.0000E+00  0.2400E+00
    -39.964  0.0000E+00  0.2400E+00
    -39.757  0.0000E+00  0.2400E+00
    -39.550  0.0000E+00  0.2400E+00
    -39.342  0.0000E+00  0.2400E+00
    -39.135  0.0000E+00  0.2400E+00
    -38.928  0.0000E+00  0.2400E+00
    -38.721  0.0000E+00  0.2400E+00
    -38.513  0.0000E+00  0.2400E+00
    -38.306  0.0000E+00  0.2400E+00
    -38.099  0.0000E+00  0.2400E+00
    -37.891  0.0000E+00  0.2400E+00
    -37.684  0.0000E+00  0.2400E+00
    -37.477  0.0000E+00  0.2400E+00
    -37.269  0.0000E+00  0.2400E+00
    -37.062  0.0000E+00  0.2400E+00
    -36.855  0.0000E+00  0.2400E+00
    -36.648  0.0000E+00  0.2400E+00
    -36.440  0.0000E+00  0.2400E+00
    -36.233  0.0000E+00  0.2400E+00
    -36.026  0.0000E+00  0.2400E+00
    -35.818  0.0000E+00  0.2400E+00
    -35.611  0.0000E+00  0.2400E+00
    -35.404  0.0000E+00  0.2400E+00
    -35.197  0.0000E+00  0.2400E+00
    -34.989  0.0000E+00  0.2400E+00
    -34.782  0.0000E+00  0.2400E+00
    -34.575  0.0000E+00  0.2400E+00
    -34.367  0.0000E+00  0.2400E+00
    -34.160  0.0000E+00  0.2400E+00
    -33.953  0.0000E+00  0.2400E+00
    -33.745  0.0000E+00  0.2400E+00
    -33.538  0.0000E+00  0.2400E+00
    -33.331  0.0000E+00  0.2400E+00
    -33.124  0.0000E+00  0.2400E+00
    -32.916  0.0000E+00  0.2400E+00
    -32.709  0.0000E+00  0.2400E+00
    -32.502  0.0000E+00  0.2400E+00
    -32.294  0.0000E+00  0.2400E+00
    -32.087  0.0000E+00  0.2400E+00
    -31.880  0.0000E+00  0.2400E+00
    -31.673  0.0000E+00  0.2400E+00
    -31.465  0.0000E+00  0.2400E+00
    -31.258  0.0000E+00  0.2400E+00
    -31.051  0.0000E+00  0.2400E+00
    -30.843  0.0000E+00  0.2400E+00
    -30.636  0.0000E+00  0.2400E+00
    -30.429  0.0000E+00  0.2400E+00
    -30.222  0.0000E+00  0.2400E+00
    -30.014  0.0000E+00  0.2400E+00
    -29.807  0.0000E+00  0.2400E+00
    -29.600  0.0000E+00  0.2400E+00
    -29.392  0.0000E+00  0.2400E+00
    -29.185  0.0000E+00  0.2400E+00
    -28.978  0.0000E+00  0.2400E+00
    -28.770  0.0000E+00  0.2400E+00
    -28.563  0.0000E+00  0.2400E+00
    -28.356  0.0000E+00  0.2400E+00
    -28.149  0.0000E+00  0.2400E+00
    -27.941  0.0000E+00  0.2400E+00
    -27.734  0.0000E+00  0.2400E+00
    -27.527  0.0000E+00  0.2400E+00
    -27.319  0.0000E+00  0.2400E+00
    -27.112  0.0000E+00  0.2400E+00
    -26.905  0.0000E+00  0.2400E+00
    -26.698  0.0000E+00  0.2400E+00
    -26.490  0.0000E+00  0.2400E+00
    -26.283  0.0000E+00  0.2400E+00
    -26.076  0.0000E+00  0.2400E+00
    -25.868 -0.2344E-33  0.2400E+00
    -25.661 -0.4367E-26  0.2400E+00
    -25.454 -0.9432E-20  0.2400E+00
    -25.246 -0.2315E-14  0.2400E+00
    -25.039 -0.6877E-10  0.2400E+00
    -24.832 -0.2468E-06  0.2400E+00
    -24.625 -0.1068E-03  0.2400E+00
    -24.417 -0.4934E-02  0.2390E+00
    -24.210  0.3171E-02  0.2396E+00
    -24.003  0.2655E+00  0.2947E+00
    -23.795  0.5083E+00  0.4000E+00
    -23.588  0.6068E+00  0.5258E+00
    -23.381  0.1068E+01  0.7472E+00
    -23.174  0.6562E+00  0.8832E+00
    -22.966  0.2767E+00  0.9406E+00
    -22.759  0.7975E-01  0.9571E+00
    -22.552  0.1651E-01  0.9606E+00
    -22.344 -0.2535E-02  0.9600E+00
    -22.137 -0.1881E-03  0.9600E+00
    -21.930 -0.1002E-05  0.9600E+00
    -21.723 -0.5691E-09  0.9600E+00
    -21.515 -0.3640E-13  0.9600E+00
    -21.308  0.0000E+00  0.9600E+00
    -21.101  0.0000E+00  0.9600E+00
    -20.893  0.0000E+00  0.9600E+00
    -20.686  0.0000E+00  0.9600E+00
    -20.479  0.0000E+00  0.9600E+00
    -20.271  0.0000E+00  0.9600E+00
    -20.064  0.0000E+00  0.9600E+00
    -19.857  0.0000E+00  0.9600E+00
    -19.650  0.0000E+00  0.9600E+00
    -19.442  0.0000E+00  0.9600E+00
    -19.235  0.0000E+00  0.9600E+00
    -19.028  0.0000E+00  0.9600E+00
    -18.820  0.0000E+00  0.9600E+00
    -18.613  0.0000E+00  0.9600E+00
    -18.406  0.0000E+00  0.9600E+00
    -18.199  0.0000E+00  0.9600E+00
    -17.991  0.0000E+00  0.9600E+00
    -17.784  0.0000E+00  0.9600E+00
    -17.577  0.0000E+00  0.9600E+00
    -17.369  0.0000E+00  0.9600E+00
    -17.162  0.0000E+00  0.9600E+00
    -16.955  0.0000E+00  0.9600E+00
    -16.748  0.0000E+00  0.9600E+00
    -16.540  0.0000E+00  0.9600E+00
    -16.333  0.0000E+00  0.9600E+00
    -16.126  0.0000E+00  0.9600E+00
    -15.918  0.0000E+00  0.9600E+00
    -15.711  0.0000E+00  0.9600E+00
    -15.504  0.0000E+00  0.9600E+00
    -15.296  0.0000E+00  0.9600E+00
    -15.089  0.0000E+00  0.9600E+00
    -14.882  0.0000E+00  0.9600E+00
    -14.675  0.0000E+00  0.9600E+00
    -14.467  0.0000E+00  0.9600E+00
    -14.260  0.0000E+00  0.9600E+00
    -14.053  0.0000E+00  0.9600E+00
    -13.845  0.0000E+00  0.9600E+00
    -13.638  0.0000E+00  0.9600E+00
    -13.431  0.0000E+00  0.9600E+00
    -13.224  0.0000E+00  0.9600E+00
    -13.016  0.0000E+00  0.9600E+00
    -12.809  0.0000E+00  0.9600E+00
    -12.602  0.0000E+00  0.9600E+00
    -12.394  0.0000E+00  0.9600E+00
    -12.187  0.0000E+00  0.9600E+00
    -11.980  0.0000E+00  0.9600E+00
    -11.772  0.0000E+00  0.9600E+00
    -11.565  0.0000E+00  0.9600E+00
    -11.358  0.0000E+00  0.9600E+00
    -11.151  0.0000E+00  0.9600E+00
    -10.943  0.0000E+00  0.9600E+00
    -10.736  0.0000E+00  0.9600E+00
    -10.529  0.0000E+00  0.9600E+00
    -10.321  0.0000E+00  0.9600E+00
    -10.114  0.0000E+00  0.9600E+00
     -9.907  0.0000E+00  0.9600E+00
     -9.700  0.0000E+00  0.9600E+00
     -9.492  0.0000E+00  0.9600E+00
     -9.285  0.0000E+00  0.9600E+00
     -9.078  0.0000E+00  0.9600E+00
     -8.870  0.0000E+00  0.9600E+00
     -8.663  0.0000E+00  0.9600E+00
     -8.456  0.0000E+00  0.9600E+00
     -8.249  0.0000E+00  0.9600E+00
     -8.041  0.0000E+00  0.9600E+00
     -7.834  0.0000E+00  0.9600E+00
     -7.627  0.0000E+00  0.9600E+00
     -7.419  0.0000E+00  0.9600E+00
     -7.212  0.0000E+00  0.9600E+00
     -7.005  0.0000E+00  0.9600E+00
     -6.797  0.0000E+00  0.9600E+00
     -6.590  0.0000E+00  0.9600E+00
     -6.383  0.0000E+00  0.9600E+00
     -6.176  0.0000E+00  0.9600E+00
     -5.968  0.0000E+00  0.9600E+00
     -5.761  0.0000E+00  0.9600E+00
     -5.554  0.0000E+00  0.9600E+00
     -5.346  0.0000E+00  0.9600E+00
     -5.139  0.0000E+00  0.9600E+00
     -4.932  0.0000E+00  0.9600E+00
     -4.725  0.0000E+00  0.9600E+00
     -4.517  0.0000E+00  0.9600E+00
     -4.310  0.0000E+00  0.9600E+00
     -4.103  0.0000E+00  0.9600E+00
     -3.895  0.0000E+00  0.9600E+00
     -3.688  0.0000E+00  0.9600E+00
     -3.481  0.0000E+00  0.9600E+00
     -3.274  0.0000E+00  0.9600E+00
     -3.066  0.0000E+00  0.9600E+00
     -2.859  0.0000E+00  0.9600E+00
     -2.652  0.0000E+00  0.9600E+00
     -2.444  0.0000E+00  0.9600E+00
     -2.237  0.0000E+00  0.9600E+00
     -2.030  0.0000E+00  0.9600E+00
     -1.822 -0.7809E-32  0.9600E+00
     -1.615 -0.6065E-25  0.9600E+00
     -1.408 -0.5505E-19  0.9600E+00
     -1.201 -0.5645E-14  0.9600E+00
     -0.993 -0.6957E-10  0.9600E+00
     -0.786 -0.1007E-06  0.9600E+00
     -0.579 -0.1702E-04  0.9600E+00
     -0.371 -0.2885E-03  0.9599E+00
     -0.164  0.1269E-02  0.9602E+00
      0.043  0.1345E-01  0.9630E+00
      0.250  0.2434E-01  0.9680E+00
      0.458  0.3075E-01  0.9744E+00
      0.665  0.4285E-01  0.9833E+00
      0.872  0.3718E-01  0.9910E+00
      1.080  0.5112E-01  0.1002E+01
      1.287  0.6247E-01  0.1015E+01
      1.494  0.6234E-01  0.1027E+01
      1.702  0.7416E-01  0.1043E+01
      1.909  0.8654E-01  0.1061E+01
      2.116  0.1025E+00  0.1082E+01
      2.323  0.1190E+00  0.1107E+01
      2.531  0.1923E+00  0.1147E+01
      2.738  0.3176E+00  0.1212E+01
      2.945  0.4238E+00  0.1300E+01
      3.153  0.5130E+00  0.1407E+01
      3.360  0.5545E+00  0.1522E+01
      3.567  0.6175E+00  0.1650E+01
      3.774  0.6199E+00  0.1778E+01
      3.982  0.6079E+00  0.1904E+01
      4.189  0.5859E+00  0.2026E+01
      4.396  0.5606E+00  0.2142E+01
      4.604  0.5540E+00  0.2257E+01
      4.811  0.6457E+00  0.2390E+01
      5.018  0.7558E+00  0.2547E+01
      5.225  0.8219E+00  0.2717E+01
      5.433  0.8226E+00  0.2888E+01
      5.640  0.8039E+00  0.3055E+01
      5.847  0.7839E+00  0.3217E+01
      6.055  0.8180E+00  0.3387E+01
      6.262  0.8353E+00  0.3560E+01
      6.469  0.8380E+00  0.3734E+01
      6.677  0.7501E+00  0.3889E+01
      6.884  0.6328E+00  0.4020E+01
      7.091  0.5461E+00  0.4133E+01
      7.298  0.4634E+00  0.4229E+01
      7.506  0.3989E+00  0.4312E+01
      7.713  0.3812E+00  0.4391E+01
      7.920  0.4330E+00  0.4481E+01
      8.128  0.5019E+00  0.4585E+01
      8.335  0.4946E+00  0.4688E+01
      8.542  0.3719E+00  0.4765E+01
      8.749  0.1598E+00  0.4798E+01
      8.957  0.1448E-01  0.4801E+01
      9.164 -0.3291E-02  0.4800E+01
      9.371 -0.2295E-03  0.4800E+01
      9.579 -0.1869E-05  0.4800E+01
      9.786 -0.1996E-08  0.4800E+01
      9.993 -0.2685E-12  0.4800E+01
     10.201 -0.4247E-17  0.4800E+01
     10.408  0.0000E+00  0.4800E+01
     10.615  0.0000E+00  0.4800E+01
     10.822  0.0000E+00  0.4800E+01
     11.030  0.0000E+00  0.4800E+01
     11.237  0.0000E+00  0.4800E+01
     11.444  0.0000E+00  0.4800E+01
     11.652  0.0000E+00  0.4800E+01
