   29   29   50    1
  0.1632129E+02  0.5473281E-09  0.8209921E-09  0.1128346E-08  0.5000000E-15
  1.000000000000000E-004
  CAR 
 Nb - Mo - Ta - Ti - V SQS               
    193    172    120
 
  0.0000000E+00  0.0000000E+00  0.0000000E+00  0.2915452E-02
    1      -47.709453   1.000000
    2      -47.410269   1.000000
    3      -47.390366   1.000000
    4      -47.331796   1.000000
    5      -47.242915   1.000000
    6      -47.115419   1.000000
    7      -24.139236   1.000000
    8      -24.050858   1.000000
    9      -23.915113   1.000000
   10      -23.907004   1.000000
   11      -23.812864   1.000000
   12      -23.660398   1.000000
   13      -23.582485   1.000000
   14      -23.567869   1.000000
   15      -23.544874   1.000000
   16      -23.492766   1.000000
   17      -23.479737   1.000000
   18      -23.419276   1.000000
   19      -23.405255   1.000000
   20      -23.328904   1.000000
   21      -23.294692   1.000000
   22      -23.184533   1.000000
   23      -23.070327   1.000000
   24      -22.776260   1.000000
   25       -0.180260   1.000000
   26        1.157271   1.000000
   27        1.433933   1.000000
   28        2.256938   1.000000
   29        2.385025   1.000000
   30        2.459538   1.000000
   31        2.548461   1.000000
   32        2.681049   1.000000
   33        2.743223   1.000000
   34        2.797629   1.000000
   35        2.919912   1.000000
   36        2.958611   1.000000
   37        2.987409   1.000000
   38        3.124928   1.000000
   39        3.130870   1.000000
   40        3.180428   1.000000
   41        3.304592   1.000000
   42        3.334762   1.000000
   43        3.499624   1.000000
   44        3.548020   1.000000
   45        3.649220   1.000000
   46        3.672941   1.000000
   47        3.723981   1.000000
   48        3.750943   1.000000
   49        3.818595   1.000000
   50        3.930649   1.000000
   51        3.984617   1.000000
   52        4.093866   1.000000
   53        4.142440   1.000000
   54        4.210306   1.000000
   55        4.320067   1.000000
   56        4.420153   1.000000
   57        4.442442   1.000000
   58        4.584509   1.000000
   59        4.607230   1.000000
   60        4.680305   1.000000
   61        4.763290   1.000000
   62        4.803618   1.000000
   63        4.877856   1.000000
   64        4.936693   1.000000
   65        5.002879   1.000000
   66        5.058117   1.000000
   67        5.081388   1.000000
   68        5.112856   1.000000
   69        5.145143   1.000000
   70        5.187463   1.000000
   71        5.296243   1.000000
   72        5.330313   1.000000
   73        5.381126   1.000000
   74        5.405717   1.000000
   75        5.475905   1.000000
   76        5.504383   1.000000
   77        5.624610   1.000000
   78        5.788542   1.000000
   79        5.833738   1.000000
   80        5.852457   1.000000
   81        5.952907   1.000008
   82        5.982364   1.000020
   83        6.041240   1.000112
   84        6.084487   1.000352
   85        6.141189   1.001339
   86        6.167505   1.002339
   87        6.257122   1.011303
   88        6.334189   1.027557
   89        6.395701   1.035312
   90        6.448509   1.016333
   91        6.521684   0.903518
   92        6.536806   0.864018
   93        6.591088   0.679425
   94        6.691455   0.269914
   95        6.721451   0.168158
   96        6.813388  -0.010322
   97        6.902137  -0.033782
   98        6.955759  -0.022801
   99        7.026426  -0.009105
  100        7.100318  -0.002407
  101        7.148668  -0.000841
  102        7.240795  -0.000078
  103        7.298037  -0.000014
  104        7.381001  -0.000001
  105        7.480131  -0.000000
  106        7.555901  -0.000000
  107        7.637989  -0.000000
  108        7.871115  -0.000000
  109        7.955955  -0.000000
  110        8.118126  -0.000000
  111        8.120967  -0.000000
  112        8.237010  -0.000000
  113        8.271611  -0.000000
  114        8.310590  -0.000000
  115        8.470790  -0.000000
  116        8.564379  -0.000000
  117        8.625558  -0.000000
  118        8.690413  -0.000000
  119        8.730031  -0.000000
  120        8.737100  -0.000000
 
  0.1428571E+00  0.0000000E+00 -0.1561251E-16  0.5830904E-02
    1      -47.709324   1.000000
    2      -47.405741   1.000000
    3      -47.389968   1.000000
    4      -47.331522   1.000000
    5      -47.243028   1.000000
    6      -47.120317   1.000000
    7      -24.084340   1.000000
    8      -24.048512   1.000000
    9      -23.912254   1.000000
   10      -23.903666   1.000000
   11      -23.814102   1.000000
   12      -23.660873   1.000000
   13      -23.578807   1.000000
   14      -23.567252   1.000000
   15      -23.547430   1.000000
   16      -23.493789   1.000000
   17      -23.477172   1.000000
   18      -23.421425   1.000000
   19      -23.405955   1.000000
   20      -23.334361   1.000000
   21      -23.299729   1.000000
   22      -23.185384   1.000000
   23      -23.074594   1.000000
   24      -22.846263   1.000000
   25       -0.014315   1.000000
   26        1.307455   1.000000
   27        1.575262   1.000000
   28        2.282436   1.000000
   29        2.503578   1.000000
   30        2.595768   1.000000
   31        2.655213   1.000000
   32        2.790875   1.000000
   33        2.827650   1.000000
   34        2.858754   1.000000
   35        3.024498   1.000000
   36        3.058900   1.000000
   37        3.103183   1.000000
   38        3.166696   1.000000
   39        3.205971   1.000000
   40        3.260474   1.000000
   41        3.372214   1.000000
   42        3.432553   1.000000
   43        3.555353   1.000000
   44        3.598506   1.000000
   45        3.611219   1.000000
   46        3.683790   1.000000
   47        3.767008   1.000000
   48        3.877378   1.000000
   49        3.924944   1.000000
   50        3.972046   1.000000
   51        4.059549   1.000000
   52        4.111960   1.000000
   53        4.151263   1.000000
   54        4.276109   1.000000
   55        4.365792   1.000000
   56        4.462144   1.000000
   57        4.476801   1.000000
   58        4.555523   1.000000
   59        4.657320   1.000000
   60        4.733384   1.000000
   61        4.804443   1.000000
   62        4.850947   1.000000
   63        4.933574   1.000000
   64        4.967860   1.000000
   65        5.048201   1.000000
   66        5.087092   1.000000
   67        5.117816   1.000000
   68        5.160143   1.000000
   69        5.197975   1.000000
   70        5.254405   1.000000
   71        5.283835   1.000000
   72        5.360107   1.000000
   73        5.413522   1.000000
   74        5.467292   1.000000
   75        5.503226   1.000000
   76        5.561155   1.000000
   77        5.621253   1.000000
   78        5.669117   1.000000
   79        5.795247   1.000000
   80        5.842182   1.000000
   81        5.884153   1.000001
   82        5.968366   1.000013
   83        6.013862   1.000052
   84        6.066726   1.000223
   85        6.153047   1.001731
   86        6.189887   1.003636
   87        6.242692   1.009089
   88        6.270327   1.013621
   89        6.348470   1.030597
   90        6.396283   1.035281
   91        6.449284   1.015745
   92        6.498828   0.952300
   93        6.525856   0.893194
   94        6.557510   0.800927
   95        6.645247   0.455075
   96        6.737391   0.122371
   97        6.775706   0.038235
   98        6.823781  -0.018555
   99        6.986782  -0.015981
  100        7.006246  -0.012298
  101        7.079285  -0.003640
  102        7.153903  -0.000745
  103        7.207083  -0.000197
  104        7.233115  -0.000097
  105        7.301473  -0.000013
  106        7.433983  -0.000000
  107        7.527679  -0.000000
  108        7.681997  -0.000000
  109        7.746995  -0.000000
  110        7.933007  -0.000000
  111        7.994544  -0.000000
  112        8.057878  -0.000000
  113        8.120139  -0.000000
  114        8.241917  -0.000000
  115        8.327084  -0.000000
  116        8.371268  -0.000000
  117        8.412835  -0.000000
  118        8.448631  -0.000000
  119        8.497130  -0.000000
  120        8.579006  -0.000000
 
  0.2857143E+00  0.1387779E-16  0.3469447E-17  0.5830904E-02
    1      -47.709036   1.000000
    2      -47.395035   1.000000
    3      -47.388990   1.000000
    4      -47.330899   1.000000
    5      -47.243289   1.000000
    6      -47.131941   1.000000
    7      -24.052559   1.000000
    8      -23.952588   1.000000
    9      -23.905222   1.000000
   10      -23.866169   1.000000
   11      -23.812522   1.000000
   12      -23.661982   1.000000
   13      -23.575093   1.000000
   14      -23.561010   1.000000
   15      -23.552702   1.000000
   16      -23.497269   1.000000
   17      -23.469128   1.000000
   18      -23.426621   1.000000
   19      -23.407036   1.000000
   20      -23.347587   1.000000
   21      -23.311966   1.000000
   22      -23.187480   1.000000
   23      -23.084142   1.000000
   24      -23.037491   1.000000
   25        0.456922   1.000000
   26        1.708631   1.000000
   27        1.954935   1.000000
   28        2.407718   1.000000
   29        2.661125   1.000000
   30        2.780263   1.000000
   31        2.876679   1.000000
   32        2.975012   1.000000
   33        3.048046   1.000000
   34        3.107535   1.000000
   35        3.190490   1.000000
   36        3.242898   1.000000
   37        3.315003   1.000000
   38        3.350271   1.000000
   39        3.424542   1.000000
   40        3.450537   1.000000
   41        3.509513   1.000000
   42        3.562682   1.000000
   43        3.641091   1.000000
   44        3.664559   1.000000
   45        3.766949   1.000000
   46        3.851152   1.000000
   47        3.942904   1.000000
   48        3.967287   1.000000
   49        4.040983   1.000000
   50        4.160942   1.000000
   51        4.246555   1.000000
   52        4.285375   1.000000
   53        4.313972   1.000000
   54        4.401853   1.000000
   55        4.478666   1.000000
   56        4.521197   1.000000
   57        4.560007   1.000000
   58        4.647479   1.000000
   59        4.713569   1.000000
   60        4.830105   1.000000
   61        4.880258   1.000000
   62        4.919032   1.000000
   63        4.951909   1.000000
   64        5.033371   1.000000
   65        5.083640   1.000000
   66        5.129584   1.000000
   67        5.150302   1.000000
   68        5.184322   1.000000
   69        5.240690   1.000000
   70        5.315535   1.000000
   71        5.354167   1.000000
   72        5.426518   1.000000
   73        5.499370   1.000000
   74        5.517896   1.000000
   75        5.590424   1.000000
   76        5.620157   1.000000
   77        5.655241   1.000000
   78        5.716463   1.000000
   79        5.731701   1.000000
   80        5.766162   1.000000
   81        5.842832   1.000000
   82        5.887594   1.000001
   83        5.962438   1.000011
   84        6.015158   1.000054
   85        6.024779   1.000071
   86        6.106726   1.000607
   87        6.159290   1.001974
   88        6.186650   1.003418
   89        6.278670   1.015223
   90        6.304871   1.020831
   91        6.329950   1.026601
   92        6.375969   1.034801
   93        6.440200   1.021980
   94        6.512999   0.923603
   95        6.528086   0.887495
   96        6.598380   0.650562
   97        6.633473   0.504827
   98        6.666662   0.366302
   99        6.752648   0.084444
  100        6.800599   0.002687
  101        6.829479  -0.022254
  102        6.961215  -0.021547
  103        7.014521  -0.010909
  104        7.054637  -0.005709
  105        7.126402  -0.001388
  106        7.253965  -0.000054
  107        7.289361  -0.000019
  108        7.405923  -0.000000
  109        7.456181  -0.000000
  110        7.470956  -0.000000
  111        7.608500  -0.000000
  112        7.681621  -0.000000
  113        7.810145  -0.000000
  114        7.887594  -0.000000
  115        7.936018  -0.000000
  116        8.000928  -0.000000
  117        8.096743  -0.000000
  118        8.176933  -0.000000
  119        8.251168  -0.000000
  120        8.330082  -0.000000
 
  0.4285714E+00  0.5551115E-16 -0.4163336E-16  0.5830904E-02
    1      -47.708805   1.000000
    2      -47.388815   1.000000
    3      -47.385094   1.000000
    4      -47.330392   1.000000
    5      -47.243504   1.000000
    6      -47.142006   1.000000
    7      -24.051827   1.000000
    8      -23.923024   1.000000
    9      -23.900080   1.000000
   10      -23.825644   1.000000
   11      -23.664495   1.000000
   12      -23.648295   1.000000
   13      -23.575804   1.000000
   14      -23.557068   1.000000
   15      -23.550936   1.000000
   16      -23.500419   1.000000
   17      -23.460496   1.000000
   18      -23.430910   1.000000
   19      -23.407684   1.000000
   20      -23.359566   1.000000
   21      -23.323379   1.000000
   22      -23.290165   1.000000
   23      -23.189163   1.000000
   24      -23.091700   1.000000
   25        1.142955   1.000000
   26        1.925202   1.000000
   27        2.311888   1.000000
   28        2.518767   1.000000
   29        2.582065   1.000000
   30        2.854545   1.000000
   31        2.939282   1.000000
   32        3.117147   1.000000
   33        3.242118   1.000000
   34        3.318382   1.000000
   35        3.366001   1.000000
   36        3.383473   1.000000
   37        3.414372   1.000000
   38        3.470982   1.000000
   39        3.544739   1.000000
   40        3.647603   1.000000
   41        3.729680   1.000000
   42        3.793764   1.000000
   43        3.813789   1.000000
   44        3.892301   1.000000
   45        3.930931   1.000000
   46        3.954777   1.000000
   47        4.083628   1.000000
   48        4.119185   1.000000
   49        4.208962   1.000000
   50        4.226073   1.000000
   51        4.341986   1.000000
   52        4.395207   1.000000
   53        4.470443   1.000000
   54        4.530932   1.000000
   55        4.591097   1.000000
   56        4.647551   1.000000
   57        4.681518   1.000000
   58        4.747664   1.000000
   59        4.796153   1.000000
   60        4.867926   1.000000
   61        4.881696   1.000000
   62        4.921064   1.000000
   63        4.963634   1.000000
   64        4.998490   1.000000
   65        5.053217   1.000000
   66        5.104366   1.000000
   67        5.126378   1.000000
   68        5.201718   1.000000
   69        5.274015   1.000000
   70        5.327067   1.000000
   71        5.380936   1.000000
   72        5.402196   1.000000
   73        5.476889   1.000000
   74        5.516828   1.000000
   75        5.593924   1.000000
   76        5.618859   1.000000
   77        5.674099   1.000000
   78        5.696665   1.000000
   79        5.756109   1.000000
   80        5.785982   1.000000
   81        5.840495   1.000000
   82        5.925310   1.000003
   83        5.944646   1.000006
   84        5.983111   1.000021
   85        6.017707   1.000058
   86        6.084548   1.000352
   87        6.126027   1.000954
   88        6.151931   1.001690
   89        6.203756   1.004706
   90        6.248751   1.009978
   91        6.291089   1.017786
   92        6.322327   1.024851
   93        6.356513   1.032114
   94        6.391749   1.035441
   95        6.447012   1.017440
   96        6.465965   1.000298
   97        6.499877   0.950347
   98        6.582893   0.710944
   99        6.655750   0.411116
  100        6.686925   0.286824
  101        6.793658   0.011185
  102        6.842368  -0.028697
  103        6.937227  -0.027065
  104        6.969039  -0.019777
  105        6.989503  -0.015433
  106        7.071943  -0.004179
  107        7.157062  -0.000691
  108        7.206702  -0.000199
  109        7.309784  -0.000010
  110        7.398262  -0.000000
  111        7.452207  -0.000000
  112        7.571068  -0.000000
  113        7.621370  -0.000000
  114        7.680339  -0.000000
  115        7.756549  -0.000000
  116        7.831620  -0.000000
  117        7.930034  -0.000000
  118        8.056645  -0.000000
  119        8.118971  -0.000000
  120        8.170082  -0.000000
 
 -0.6938894E-17  0.1428571E+00  0.1040834E-16  0.5830904E-02
    1      -47.709453   1.000000
    2      -47.410267   1.000000
    3      -47.390205   1.000000
    4      -47.331674   1.000000
    5      -47.243205   1.000000
    6      -47.115416   1.000000
    7      -24.139234   1.000000
    8      -24.050303   1.000000
    9      -23.912240   1.000000
   10      -23.906585   1.000000
   11      -23.812867   1.000000
   12      -23.660314   1.000000
   13      -23.582542   1.000000
   14      -23.567885   1.000000
   15      -23.544994   1.000000
   16      -23.492794   1.000000
   17      -23.479767   1.000000
   18      -23.419090   1.000000
   19      -23.405203   1.000000
   20      -23.328946   1.000000
   21      -23.294745   1.000000
   22      -23.185036   1.000000
   23      -23.074468   1.000000
   24      -22.776267   1.000000
   25       -0.109425   1.000000
   26        1.184773   1.000000
   27        1.505590   1.000000
   28        2.005084   1.000000
   29        2.398957   1.000000
   30        2.515334   1.000000
   31        2.545897   1.000000
   32        2.689835   1.000000
   33        2.735544   1.000000
   34        2.819153   1.000000
   35        2.903241   1.000000
   36        2.937832   1.000000
   37        2.974194   1.000000
   38        3.055460   1.000000
   39        3.087779   1.000000
   40        3.145705   1.000000
   41        3.365347   1.000000
   42        3.420267   1.000000
   43        3.496555   1.000000
   44        3.552962   1.000000
   45        3.590715   1.000000
   46        3.684427   1.000000
   47        3.720562   1.000000
   48        3.810356   1.000000
   49        3.870722   1.000000
   50        3.940295   1.000000
   51        4.008914   1.000000
   52        4.112470   1.000000
   53        4.142517   1.000000
   54        4.209195   1.000000
   55        4.365829   1.000000
   56        4.405871   1.000000
   57        4.513578   1.000000
   58        4.539211   1.000000
   59        4.627983   1.000000
   60        4.728511   1.000000
   61        4.775388   1.000000
   62        4.822503   1.000000
   63        4.881878   1.000000
   64        4.946898   1.000000
   65        5.009272   1.000000
   66        5.040848   1.000000
   67        5.093346   1.000000
   68        5.116208   1.000000
   69        5.186883   1.000000
   70        5.235902   1.000000
   71        5.276902   1.000000
   72        5.351172   1.000000
   73        5.396985   1.000000
   74        5.448761   1.000000
   75        5.499337   1.000000
   76        5.534580   1.000000
   77        5.633748   1.000000
   78        5.735869   1.000000
   79        5.822764   1.000000
   80        5.891733   1.000001
   81        5.933313   1.000004
   82        5.974495   1.000016
   83        6.016910   1.000056
   84        6.067205   1.000226
   85        6.101676   1.000538
   86        6.179842   1.002994
   87        6.205037   1.004817
   88        6.300255   1.019792
   89        6.340563   1.028955
   90        6.425796   1.029118
   91        6.441353   1.021267
   92        6.507980   0.934342
   93        6.544088   0.842980
   94        6.591153   0.679169
   95        6.708718   0.209026
   96        6.745090   0.102500
   97        6.867732  -0.034874
   98        7.012842  -0.011182
   99        7.038537  -0.007500
  100        7.119237  -0.001621
  101        7.191232  -0.000298
  102        7.241212  -0.000078
  103        7.315493  -0.000008
  104        7.381495  -0.000001
  105        7.469270  -0.000000
  106        7.618118  -0.000000
  107        7.739988  -0.000000
  108        7.781997  -0.000000
  109        7.882095  -0.000000
  110        7.970842  -0.000000
  111        8.076378  -0.000000
  112        8.217790  -0.000000
  113        8.265767  -0.000000
  114        8.330584  -0.000000
  115        8.408806  -0.000000
  116        8.452382  -0.000000
  117        8.564070  -0.000000
  118        8.600303  -0.000000
  119        8.654915  -0.000000
  120        8.700527  -0.000000
 
  0.1428571E+00  0.1428571E+00 -0.1387779E-16  0.5830904E-02
    1      -47.709324   1.000000
    2      -47.405743   1.000000
    3      -47.390121   1.000000
    4      -47.331641   1.000000
    5      -47.242749   1.000000
    6      -47.120320   1.000000
    7      -24.084360   1.000000
    8      -24.049024   1.000000
    9      -23.915341   1.000000
   10      -23.903786   1.000000
   11      -23.814101   1.000000
   12      -23.661008   1.000000
   13      -23.578778   1.000000
   14      -23.567241   1.000000
   15      -23.547419   1.000000
   16      -23.493792   1.000000
   17      -23.477166   1.000000
   18      -23.421397   1.000000
   19      -23.406001   1.000000
   20      -23.334319   1.000000
   21      -23.299674   1.000000
   22      -23.184849   1.000000
   23      -23.070645   1.000000
   24      -22.846258   1.000000
   25       -0.014430   1.000000
   26        1.283993   1.000000
   27        1.591775   1.000000
   28        2.280439   1.000000
   29        2.485187   1.000000
   30        2.596792   1.000000
   31        2.648466   1.000000
   32        2.747052   1.000000
   33        2.795442   1.000000
   34        2.858620   1.000000
   35        2.919998   1.000000
   36        3.025644   1.000000
   37        3.091499   1.000000
   38        3.149219   1.000000
   39        3.211696   1.000000
   40        3.241586   1.000000
   41        3.387091   1.000000
   42        3.485344   1.000000
   43        3.531362   1.000000
   44        3.611611   1.000000
   45        3.641220   1.000000
   46        3.720126   1.000000
   47        3.778581   1.000000
   48        3.828215   1.000000
   49        3.926446   1.000000
   50        3.989825   1.000000
   51        4.040313   1.000000
   52        4.110908   1.000000
   53        4.255495   1.000000
   54        4.285403   1.000000
   55        4.358909   1.000000
   56        4.483127   1.000000
   57        4.531813   1.000000
   58        4.610285   1.000000
   59        4.638554   1.000000
   60        4.734393   1.000000
   61        4.774653   1.000000
   62        4.810396   1.000000
   63        4.903863   1.000000
   64        4.932286   1.000000
   65        5.032260   1.000000
   66        5.082809   1.000000
   67        5.098222   1.000000
   68        5.143568   1.000000
   69        5.164956   1.000000
   70        5.238043   1.000000
   71        5.302485   1.000000
   72        5.351173   1.000000
   73        5.398490   1.000000
   74        5.418826   1.000000
   75        5.499569   1.000000
   76        5.564916   1.000000
   77        5.614930   1.000000
   78        5.670302   1.000000
   79        5.782703   1.000000
   80        5.819845   1.000000
   81        5.879978   1.000001
   82        5.916421   1.000002
   83        5.970619   1.000014
   84        6.076392   1.000286
   85        6.100120   1.000518
   86        6.191224   1.003730
   87        6.204595   1.004779
   88        6.294992   1.018630
   89        6.336500   1.028070
   90        6.419343   1.031344
   91        6.464007   1.002398
   92        6.523504   0.899069
   93        6.547481   0.832744
   94        6.605304   0.622556
   95        6.677660   0.322450
   96        6.753069   0.083481
   97        6.826734  -0.020541
   98        6.883798  -0.035391
   99        6.927824  -0.029135
  100        7.027838  -0.008906
  101        7.138205  -0.001068
  102        7.160729  -0.000634
  103        7.187026  -0.000332
  104        7.258193  -0.000048
  105        7.359607  -0.000002
  106        7.430091  -0.000000
  107        7.528665  -0.000000
  108        7.639963  -0.000000
  109        7.800606  -0.000000
  110        7.850145  -0.000000
  111        7.997055  -0.000000
  112        8.113413  -0.000000
  113        8.204283  -0.000000
  114        8.329342  -0.000000
  115        8.414916  -0.000000
  116        8.498823  -0.000000
  117        8.555833  -0.000000
  118        8.628366  -0.000000
  119        8.642198  -0.000000
  120        8.729821  -0.000000
 
  0.2857143E+00  0.1428571E+00  0.2775558E-16  0.5830904E-02
    1      -47.709036   1.000000
    2      -47.395048   1.000000
    3      -47.389331   1.000000
    4      -47.331174   1.000000
    5      -47.242649   1.000000
    6      -47.131946   1.000000
    7      -24.053668   1.000000
    8      -23.952806   1.000000
    9      -23.912493   1.000000
   10      -23.866154   1.000000
   11      -23.812513   1.000000
   12      -23.662297   1.000000
   13      -23.575052   1.000000
   14      -23.560938   1.000000
   15      -23.552618   1.000000
   16      -23.497250   1.000000
   17      -23.469094   1.000000
   18      -23.426679   1.000000
   19      -23.407150   1.000000
   20      -23.347493   1.000000
   21      -23.311843   1.000000
   22      -23.186119   1.000000
   23      -23.075179   1.000000
   24      -23.037474   1.000000
   25        0.391617   1.000000
   26        1.628597   1.000000
   27        1.916798   1.000000
   28        2.499252   1.000000
   29        2.610301   1.000000
   30        2.741272   1.000000
   31        2.894816   1.000000
   32        2.960239   1.000000
   33        3.027719   1.000000
   34        3.088238   1.000000
   35        3.149044   1.000000
   36        3.176693   1.000000
   37        3.298078   1.000000
   38        3.384565   1.000000
   39        3.429570   1.000000
   40        3.464194   1.000000
   41        3.539714   1.000000
   42        3.614071   1.000000
   43        3.630217   1.000000
   44        3.691038   1.000000
   45        3.761676   1.000000
   46        3.842233   1.000000
   47        3.936745   1.000000
   48        4.000520   1.000000
   49        4.027792   1.000000
   50        4.090406   1.000000
   51        4.195787   1.000000
   52        4.301428   1.000000
   53        4.342104   1.000000
   54        4.398616   1.000000
   55        4.473337   1.000000
   56        4.500572   1.000000
   57        4.591246   1.000000
   58        4.653295   1.000000
   59        4.729029   1.000000
   60        4.811425   1.000000
   61        4.867863   1.000000
   62        4.895341   1.000000
   63        4.970607   1.000000
   64        5.002976   1.000000
   65        5.052259   1.000000
   66        5.092272   1.000000
   67        5.156092   1.000000
   68        5.172688   1.000000
   69        5.263168   1.000000
   70        5.286499   1.000000
   71        5.322845   1.000000
   72        5.369546   1.000000
   73        5.417156   1.000000
   74        5.445647   1.000000
   75        5.567217   1.000000
   76        5.602053   1.000000
   77        5.654718   1.000000
   78        5.692149   1.000000
   79        5.736099   1.000000
   80        5.800339   1.000000
   81        5.852330   1.000000
   82        5.944189   1.000006
   83        5.968586   1.000013
   84        6.010931   1.000047
   85        6.083769   1.000345
   86        6.115863   1.000754
   87        6.159062   1.001965
   88        6.201890   1.004549
   89        6.257823   1.011420
   90        6.284697   1.016442
   91        6.324164   1.025275
   92        6.374833   1.034693
   93        6.402935   1.034716
   94        6.464997   1.001346
   95        6.508560   0.933135
   96        6.558669   0.797104
   97        6.605625   0.621245
   98        6.687595   0.284300
   99        6.738898   0.118365
  100        6.825134  -0.019484
  101        6.882733  -0.035420
  102        6.937231  -0.027064
  103        7.009037  -0.011817
  104        7.055333  -0.005640
  105        7.155881  -0.000711
  106        7.237547  -0.000086
  107        7.333470  -0.000005
  108        7.461296  -0.000000
  109        7.538124  -0.000000
  110        7.584079  -0.000000
  111        7.733576  -0.000000
  112        7.815577  -0.000000
  113        7.951411  -0.000000
  114        8.067885  -0.000000
  115        8.212168  -0.000000
  116        8.231726  -0.000000
  117        8.307391  -0.000000
  118        8.337861  -0.000000
  119        8.398479  -0.000000
  120        8.432896  -0.000000
 
  0.4285714E+00  0.1428571E+00 -0.2081668E-16  0.5830904E-02
    1      -47.708805   1.000000
    2      -47.389068   1.000000
    3      -47.385124   1.000000
    4      -47.330618   1.000000
    5      -47.242986   1.000000
    6      -47.142011   1.000000
    7      -24.052668   1.000000
    8      -23.923416   1.000000
    9      -23.905848   1.000000
   10      -23.825642   1.000000
   11      -23.664763   1.000000
   12      -23.648305   1.000000
   13      -23.575787   1.000000
   14      -23.557006   1.000000
   15      -23.550873   1.000000
   16      -23.500402   1.000000
   17      -23.460469   1.000000
   18      -23.430929   1.000000
   19      -23.407786   1.000000
   20      -23.359492   1.000000
   21      -23.323274   1.000000
   22      -23.290157   1.000000
   23      -23.187856   1.000000
   24      -23.084583   1.000000
   25        1.041597   1.000000
   26        1.964430   1.000000
   27        2.252236   1.000000
   28        2.424671   1.000000
   29        2.577735   1.000000
   30        2.680166   1.000000
   31        3.042146   1.000000
   32        3.184198   1.000000
   33        3.283415   1.000000
   34        3.306358   1.000000
   35        3.367629   1.000000
   36        3.404034   1.000000
   37        3.469679   1.000000
   38        3.514536   1.000000
   39        3.585748   1.000000
   40        3.613875   1.000000
   41        3.699740   1.000000
   42        3.772173   1.000000
   43        3.861022   1.000000
   44        3.891344   1.000000
   45        3.932036   1.000000
   46        3.970051   1.000000
   47        4.046853   1.000000