       N       E                     dE             d eps       ncg     rms          rms(c)
DAV:   1    -0.435232711269E+04   -0.43523E+04   -0.16171E+05 60384   0.198E+03
DAV:   2    -0.976237414385E+04   -0.54100E+04   -0.51776E+04 69216   0.115E+03
DAV:   3    -0.106223812166E+05   -0.86001E+03   -0.83317E+03 82560   0.518E+02
DAV:   4    -0.108633849952E+05   -0.24100E+03   -0.22009E+03 82560   0.221E+02
DAV:   5    -0.110367249841E+05   -0.17334E+03   -0.15593E+03 82560   0.158E+02    0.539E+03
DAV:   6    -0.119351479495E+04    0.98432E+04   -0.22988E+04 66060   0.603E+02    0.257E+03
DAV:   7    -0.997423183054E+03    0.19609E+03   -0.14915E+04 69192   0.527E+02    0.193E+03
DAV:   8    -0.788506516614E+03    0.20892E+03   -0.43985E+03 72588   0.310E+02    0.172E+03
DAV:   9    -0.704796195667E+03    0.83710E+02   -0.69573E+02 71796   0.848E+01    0.165E+03
DAV:  10    -0.693324811951E+03    0.11471E+02   -0.10851E+02 77460   0.336E+01    0.163E+03
DAV:  11    -0.621403013343E+03    0.71922E+02   -0.59383E+02 72924   0.809E+01    0.146E+03
DAV:  12    -0.547242891701E+03    0.74160E+02   -0.37081E+03 76740   0.393E+02    0.106E+03
DAV:  13    -0.513877602709E+03    0.33365E+02   -0.43809E+03 66588   0.263E+02    0.590E+02
DAV:  14    -0.372436279081E+03    0.14144E+03   -0.15405E+03 69876   0.198E+02    0.370E+02
DAV:  15    -0.435063674739E+03   -0.62627E+02   -0.14413E+03 74916   0.182E+02    0.214E+02
DAV:  16    -0.380100892541E+03    0.54963E+02   -0.40248E+02 77232   0.665E+01    0.187E+02
DAV:  17    -0.372907282169E+03    0.71936E+01   -0.15745E+02 75516   0.470E+01    0.174E+02
DAV:  18    -0.352742532837E+03    0.20165E+02   -0.10625E+02 74496   0.482E+01    0.157E+02
DAV:  19    -0.333018629458E+03    0.19724E+02   -0.16074E+02 74304   0.573E+01    0.144E+02
DAV:  20    -0.319513371757E+03    0.13505E+02   -0.18693E+02 75720   0.805E+01    0.966E+01
DAV:  21    -0.335274741137E+03   -0.15761E+02   -0.16254E+02 75072   0.509E+01    0.104E+02
DAV:  22    -0.318368381520E+03    0.16906E+02   -0.94720E+01 80352   0.412E+01    0.777E+01
DAV:  23    -0.314267191624E+03    0.41012E+01   -0.20801E+01 69420   0.197E+01    0.689E+01
DAV:  24    -0.313527659234E+03    0.73953E+00   -0.86199E+00 64272   0.146E+01    0.653E+01
DAV:  25    -0.314373743594E+03   -0.84608E+00   -0.11826E+01 68412   0.152E+01    0.590E+01
DAV:  26    -0.309599722673E+03    0.47740E+01   -0.17471E+01 69924   0.219E+01    0.429E+01
DAV:  27    -0.308654283133E+03    0.94544E+00   -0.34925E+01 65412   0.254E+01    0.296E+01
DAV:  28    -0.307596347024E+03    0.10579E+01   -0.47891E+00 65304   0.876E+00    0.271E+01
DAV:  29    -0.307054758461E+03    0.54159E+00   -0.17149E+00 70356   0.472E+00    0.246E+01
DAV:  30    -0.306848712027E+03    0.20605E+00   -0.58457E-01 75528   0.280E+00    0.222E+01
DAV:  31    -0.306838752658E+03    0.99594E-02   -0.14596E+00 69924   0.446E+00    0.179E+01
DAV:  32    -0.306551889145E+03    0.28686E+00   -0.10690E+00 68772   0.381E+00    0.133E+01
DAV:  33    -0.306486017106E+03    0.65872E-01   -0.70529E-01 72876   0.321E+00    0.101E+01
DAV:  34    -0.306500488361E+03   -0.14471E-01   -0.23327E-01 74004   0.158E+00    0.683E+00
DAV:  35    -0.306509357752E+03   -0.88694E-02   -0.14117E-01 72228   0.122E+00    0.490E+00
DAV:  36    -0.306532280506E+03   -0.22923E-01   -0.16676E-01 70188   0.155E+00    0.413E+00
DAV:  37    -0.306469657028E+03    0.62623E-01   -0.10894E-01 71460   0.124E+00    0.300E+00
DAV:  38    -0.306443644853E+03    0.26012E-01   -0.29520E-02 70356   0.760E-01    0.220E+00
DAV:  39    -0.306424962572E+03    0.18682E-01   -0.56746E-02 63060   0.105E+00    0.166E+00
DAV:  40    -0.306425344617E+03   -0.38205E-03   -0.26330E-02 69240   0.637E-01    0.154E+00
DAV:  41    -0.306408537228E+03    0.16807E-01   -0.49590E-02 70200   0.933E-01    0.725E-01
DAV:  42    -0.306406665146E+03    0.18721E-02   -0.97612E-03 70788   0.386E-01    0.439E-01
DAV:  43    -0.306406608760E+03    0.56385E-04   -0.28362E-03 67884   0.179E-01    0.421E-01
DAV:  44    -0.306406059278E+03    0.54948E-03   -0.23908E-03 62208   0.197E-01    0.136E-01
DAV:  45    -0.306406017788E+03    0.41490E-04   -0.54435E-04 44928   0.113E-01
   1 F= -.30640602E+03 E0= -.30639792E+03  d E =-.306406E+03
       N       E                     dE             d eps       ncg     rms          rms(c)
DAV:   1    -0.306746131122E+03   -0.34007E+00   -0.86076E+01 41328   0.306E+01    0.372E+00
DAV:   2    -0.308124383002E+03   -0.13783E+01   -0.13015E+01 69696   0.209E+01    0.900E+00
DAV:   3    -0.307179010083E+03    0.94537E+00   -0.58340E+00 69876   0.107E+01    0.289E+00
DAV:   4    -0.307148994102E+03    0.30016E-01   -0.11893E+00 72444   0.480E+00    0.285E+00
DAV:   5    -0.307105593359E+03    0.43401E-01   -0.66693E-01 69936   0.395E+00    0.191E+00
DAV:   6    -0.307074934535E+03    0.30659E-01   -0.25087E-01 66912   0.215E+00    0.113E+00
DAV:   7    -0.307083905263E+03   -0.89707E-02   -0.27952E-01 73644   0.225E+00    0.157E+00
DAV:   8    -0.307075265264E+03    0.86400E-02   -0.26224E-01 70332   0.231E+00    0.115E+00
DAV:   9    -0.307062461534E+03    0.12804E-01   -0.91182E-02 73920   0.128E+00    0.545E-01
DAV:  10    -0.307059850776E+03    0.26108E-02   -0.27682E-02 70356   0.669E-01    0.344E-01
DAV:  11    -0.307059585888E+03    0.26489E-03   -0.93340E-03 61488   0.410E-01    0.263E-01
DAV:  12    -0.307059612438E+03   -0.26550E-04   -0.53022E-03 65652   0.299E-01    0.197E-01
DAV:  13    -0.307059663070E+03   -0.50632E-04   -0.45017E-03 68280   0.241E-01    0.147E-01
DAV:  14    -0.307059659985E+03    0.30845E-05   -0.35234E-03 61860   0.221E-01    0.131E-01
DAV:  15    -0.307059536391E+03    0.12359E-03   -0.21606E-03 56184   0.216E-01    0.943E-02
DAV:  16    -0.307059439998E+03    0.96393E-04   -0.79021E-04 48204   0.135E-01
   2 F= -.30705944E+03 E0= -.30705283E+03  d E =-.653422E+00
       N       E                     dE             d eps       ncg     rms          rms(c)
DAV:   1    -0.306875267139E+03    0.18427E+00   -0.14049E+02 42576   0.389E+01    0.476E+00
DAV:   2    -0.309001397067E+03   -0.21261E+01   -0.20446E+01 69780   0.259E+01    0.110E+01
DAV:   3    -0.307504003741E+03    0.14974E+01   -0.85665E+00 69768   0.131E+01    0.363E+00
DAV:   4    -0.307453933630E+03    0.50070E-01   -0.18311E+00 73008   0.608E+00    0.346E+00
DAV:   5    -0.307400297527E+03    0.53636E-01   -0.10065E+00 68820   0.502E+00    0.248E+00
DAV:   6    -0.307348382014E+03    0.51916E-01   -0.39514E-01 67056   0.276E+00    0.137E+00
DAV:   7    -0.307371784971E+03   -0.23403E-01   -0.47401E-01 70128   0.310E+00    0.209E+00
DAV:   8    -0.307345270286E+03    0.26515E-01   -0.41024E-01 70140   0.300E+00    0.119E+00
DAV:   9    -0.307330033581E+03    0.15237E-01   -0.10690E-01 71628   0.140E+00    0.610E-01
DAV:  10    -0.307327375185E+03    0.26584E-02   -0.34680E-02 70740   0.777E-01    0.407E-01
DAV:  11    -0.307327092943E+03    0.28224E-03   -0.11562E-02 64800   0.463E-01    0.307E-01
DAV:  12    -0.307327147456E+03   -0.54513E-04   -0.70037E-03 68532   0.338E-01    0.226E-01
DAV:  13    -0.307327312815E+03   -0.16536E-03   -0.65667E-03 64872   0.300E-01    0.183E-01
DAV:  14    -0.307327283513E+03    0.29301E-04   -0.56378E-03 62568   0.308E-01    0.168E-01
DAV:  15    -0.307327003062E+03    0.28045E-03   -0.27034E-03 56652   0.252E-01    0.815E-02
DAV:  16    -0.307326926391E+03    0.76671E-04   -0.74811E-04 48552   0.132E-01
   3 F= -.30732693E+03 E0= -.30732227E+03  d E =-.920909E+00
       N       E                     dE             d eps       ncg     rms          rms(c)
DAV:   1    -0.308052460813E+03   -0.72546E+00   -0.12639E+02 55200   0.482E+01    0.103E+01
DAV:   2    -0.309410964031E+03   -0.13585E+01   -0.26459E+01 74532   0.249E+01    0.121E+01
DAV:   3    -0.308446925210E+03    0.96404E+00   -0.23889E+01 73656   0.193E+01    0.101E+01
DAV:   4    -0.308087817428E+03    0.35911E+00   -0.11362E+01 67716   0.171E+01    0.660E+00
DAV:   5    -0.307616222444E+03    0.47159E+00   -0.35989E+00 71856   0.849E+00    0.417E+00
DAV:   6    -0.307426436216E+03    0.18979E+00   -0.23484E+00 70812   0.698E+00    0.290E+00
DAV:   7    -0.307412374152E+03    0.14062E-01   -0.14457E+00 74064   0.510E+00    0.261E+00
DAV:   8    -0.307369981974E+03    0.42392E-01   -0.63648E-01 72456   0.360E+00    0.154E+00
DAV:   9    -0.307352447425E+03    0.17535E-01   -0.16888E-01 68436   0.180E+00    0.920E-01
DAV:  10    -0.307350238446E+03    0.22090E-02   -0.46567E-02 73572   0.860E-01    0.737E-01
DAV:  11    -0.307352130969E+03   -0.18925E-02   -0.24301E-02 73212   0.628E-01    0.626E-01
DAV:  12    -0.307356586918E+03   -0.44559E-02   -0.35615E-02 68388   0.855E-01    0.619E-01
DAV:  13    -0.307356689272E+03   -0.10235E-03   -0.35655E-02 71688   0.816E-01    0.314E-01
DAV:  14    -0.307357113505E+03   -0.42423E-03   -0.19367E-02 73380   0.531E-01    0.289E-01
DAV:  15    -0.307356563523E+03    0.54998E-03   -0.99897E-03 66972   0.416E-01    0.171E-01
DAV:  16    -0.307356362043E+03    0.20148E-03   -0.31296E-03 60276   0.259E-01    0.102E-01
DAV:  17    -0.307356279557E+03    0.82486E-04   -0.78488E-04 50472   0.124E-01
   4 F= -.30735628E+03 E0= -.30735209E+03  d E =-.293532E-01
       N       E                     dE             d eps       ncg     rms          rms(c)
DAV:   1    -0.307630105508E+03   -0.27374E+00   -0.27790E+01 50376   0.223E+01    0.524E+00
DAV:   2    -0.307884776676E+03   -0.25467E+00   -0.58137E+00 72900   0.114E+01    0.522E+00
DAV:   3    -0.307838708112E+03    0.46069E-01   -0.57628E+00 71076   0.108E+01    0.532E+00
DAV:   4    -0.307584173605E+03    0.25453E+00   -0.17927E+00 71292   0.614E+00    0.286E+00
DAV:   5    -0.307534516516E+03    0.49657E-01   -0.10391E+00 73752   0.471E+00    0.229E+00
DAV:   6    -0.307484919942E+03    0.49597E-01   -0.56118E-01 70296   0.365E+00    0.127E+00
DAV:   7    -0.307481161543E+03    0.37584E-02   -0.25126E-01 74592   0.210E+00    0.117E+00
DAV:   8    -0.307472534565E+03    0.86270E-02   -0.12091E-01 72660   0.148E+00    0.701E-01
DAV:   9    -0.307470000742E+03    0.25338E-02   -0.34244E-02 68784   0.840E-01    0.455E-01
DAV:  10    -0.307469496828E+03    0.50391E-03   -0.10461E-02 67860   0.380E-01    0.350E-01
DAV:  11    -0.307470273890E+03   -0.77706E-03   -0.50524E-03 66624   0.311E-01    0.297E-01
DAV:  12    -0.307471516820E+03   -0.12429E-02   -0.97961E-03 64056   0.476E-01    0.293E-01
DAV:  13    -0.307471252000E+03    0.26482E-03   -0.79408E-03 73848   0.397E-01    0.971E-02
DAV:  14    -0.307471262807E+03   -0.10807E-04   -0.26611E-03 61896   0.184E-01    0.819E-02
DAV:  15    -0.307471209387E+03    0.53421E-04   -0.10838E-03 54348   0.147E-01    0.572E-02
DAV:  16    -0.307471175395E+03    0.33992E-04   -0.19135E-04 28680   0.975E-02
   5 F= -.30747118E+03 E0= -.30746674E+03  d E =-.144249E+00
       N       E                     dE             d eps       ncg     rms          rms(c)
DAV:   1    -0.307472249936E+03   -0.10405E-02   -0.21602E+01 41952   0.157E+01    0.158E+00
DAV:   2    -0.307665830051E+03   -0.19358E+00   -0.22097E+00 70344   0.715E+00    0.230E+00
DAV:   3    -0.307620128103E+03    0.45702E-01   -0.74891E-01 71160   0.383E+00    0.168E+00
DAV:   4    -0.307603222340E+03    0.16906E-01   -0.26327E-01 70044   0.239E+00    0.111E+00
DAV:   5    -0.307591353741E+03    0.11869E-01   -0.99958E-02 68196   0.127E+00    0.560E-01
DAV:   6    -0.307590359694E+03    0.99405E-03   -0.37166E-02 71724   0.784E-01    0.497E-01
DAV:   7    -0.307590438401E+03   -0.78707E-04   -0.43865E-02 75528   0.917E-01    0.517E-01
DAV:   8    -0.307588221375E+03    0.22170E-02   -0.28315E-02 70848   0.794E-01    0.283E-01
DAV:   9    -0.307587320552E+03    0.90082E-03   -0.81234E-03 69024   0.396E-01    0.159E-01
DAV:  10    -0.307587281138E+03    0.39414E-04   -0.26212E-03 62256   0.218E-01    0.131E-01
DAV:  11    -0.307587237443E+03    0.43695E-04   -0.95461E-04 48852   0.148E-01
   6 F= -.30758724E+03 E0= -.30758270E+03  d E =-.116062E+00
       N       E                     dE             d eps       ncg     rms          rms(c)
DAV:   1    -0.307497364190E+03    0.89917E-01   -0.26184E+01 42456   0.173E+01    0.173E+00
DAV:   2    -0.307720579797E+03   -0.22322E+00   -0.25813E+00 70368   0.764E+00    0.250E+00
DAV:   3    -0.307665790926E+03    0.54789E-01   -0.87089E-01 71340   0.418E+00    0.182E+00
DAV:   4    -0.307645851401E+03    0.19940E-01   -0.31123E-01 71004   0.263E+00    0.120E+00
DAV:   5    -0.307632342813E+03    0.13509E-01   -0.11714E-01 67464   0.139E+00    0.626E-01
DAV:   6    -0.307631346568E+03    0.99625E-03   -0.49376E-02 72312   0.899E-01    0.565E-01
DAV:   7    -0.307631173807E+03    0.17276E-03   -0.55036E-02 74004   0.104E+00    0.571E-01
DAV:   8    -0.307628469120E+03    0.27047E-02   -0.34732E-02 70464   0.877E-01    0.306E-01
DAV:   9    -0.307627389174E+03    0.10799E-02   -0.93714E-03 68364   0.412E-01    0.151E-01
DAV:  10    -0.307627339063E+03    0.50111E-04   -0.24405E-03 63732   0.168E-01    0.108E-01
DAV:  11    -0.307627371641E+03   -0.32579E-04   -0.10560E-03 54072   0.142E-01    0.942E-02
DAV:  12    -0.307627413704E+03   -0.42063E-04   -0.11668E-03 52860   0.171E-01    0.865E-02
DAV:  13    -0.307627346342E+03    0.67362E-04   -0.46852E-04 39120   0.124E-01
   7 F= -.30762735E+03 E0= -.30762318E+03  d E =-.156171E+00
       N       E                     dE             d eps       ncg     rms          rms(c)
DAV:   1    -0.307600631022E+03    0.26783E-01   -0.13013E+01 41280   0.127E+01    0.174E+00
DAV:   2    -0.307735485291E+03   -0.13485E+00   -0.16340E+00 69168   0.626E+00    0.241E+00
DAV:   3    -0.307704275663E+03    0.31210E-01   -0.73208E-01 69720   0.407E+00    0.180E+00
DAV:   4    -0.307687256009E+03    0.17020E-01   -0.29370E-01 68520   0.255E+00    0.121E+00
DAV:   5    -0.307670994899E+03    0.16261E-01   -0.13401E-01 67656   0.145E+00    0.576E-01
DAV:   6    -0.307671741471E+03   -0.74657E-03   -0.61504E-02 72780   0.109E+00    0.617E-01
DAV:   7    -0.307669008863E+03    0.27326E-02   -0.52590E-02 69912   0.104E+00    0.447E-01
DAV:   8    -0.307667402466E+03    0.16064E-02   -0.19179E-02 64680   0.617E-01    0.240E-01
DAV:   9    -0.307666914595E+03    0.48787E-03   -0.47525E-03 61776   0.294E-01    0.147E-01
DAV:  10    -0.307666868076E+03    0.46520E-04   -0.15646E-03 59244   0.185E-01    0.118E-01
DAV:  11    -0.307666896094E+03   -0.28018E-04   -0.84815E-04 48708   0.144E-01
   8 F= -.30766690E+03 E0= -.30766275E+03  d E =-.395498E-01
       N       E                     dE             d eps       ncg     rms          rms(c)
DAV:   1    -0.307654649004E+03    0.12219E-01   -0.29387E+00 41292   0.597E+00    0.812E-01
DAV:   2    -0.307685545236E+03   -0.30896E-01   -0.37284E-01 69204   0.304E+00    0.119E+00
DAV:   3    -0.307677384467E+03    0.81608E-02   -0.16895E-01 69180   0.195E+00    0.812E-01
DAV:   4    -0.307673970078E+03    0.34144E-02   -0.63861E-02 68436   0.115E+00    0.562E-01
DAV:   5    -0.307670521194E+03    0.34489E-02   -0.31717E-02 67008   0.741E-01    0.297E-01
DAV:   6    -0.307670773315E+03   -0.25212E-03   -0.16122E-02 72228   0.554E-01    0.299E-01
DAV:   7    -0.307670012605E+03    0.76071E-03   -0.95620E-03 65088   0.457E-01    0.205E-01
DAV:   8    -0.307669741590E+03    0.27101E-03   -0.43327E-03 61644   0.307E-01    0.151E-01
DAV:   9    -0.307669547907E+03    0.19368E-03   -0.13730E-03 55848   0.180E-01    0.759E-02
DAV:  10    -0.307669516972E+03    0.30934E-04   -0.23126E-04 31560   0.941E-02
   9 F= -.30766952E+03 E0= -.30766544E+03  d E =-.421706E-01
       N       E                     dE             d eps       ncg     rms          rms(c)
DAV:   1    -0.307669504780E+03    0.43126E-04   -0.76991E+00 41280   0.106E+01    0.191E+00
DAV:   2    -0.307762118878E+03   -0.92614E-01   -0.12913E+00 70428   0.556E+00    0.203E+00
DAV:   3    -0.307732926882E+03    0.29192E-01   -0.69123E-01 72756   0.362E+00    0.175E+00
DAV:   4    -0.307717722845E+03    0.15204E-01   -0.33955E-01 69192   0.285E+00    0.139E+00
DAV:   5    -0.307698768853E+03    0.18954E-01   -0.16153E-01 68784   0.175E+00    0.663E-01
DAV:   6    -0.307695651170E+03    0.31177E-02   -0.61035E-02 71340   0.112E+00    0.524E-01
DAV:   7    -0.307695346239E+03    0.30493E-03   -0.44601E-02 69420   0.961E-01    0.482E-01
DAV:   8    -0.307693580208E+03    0.17660E-02   -0.21761E-02 64272   0.678E-01    0.252E-01
DAV:   9    -0.307693124712E+03    0.45550E-03   -0.62295E-03 63804   0.315E-01    0.175E-01
DAV:  10    -0.307693072964E+03    0.51748E-04   -0.21809E-03 60372   0.213E-01    0.141E-01
DAV:  11    -0.307693108716E+03   -0.35752E-04   -0.10208E-03 52416   0.144E-01    0.938E-02
DAV:  12    -0.307693221553E+03   -0.11284E-03   -0.11784E-03 55308   0.152E-01    0.914E-02
DAV:  13    -0.307693207397E+03    0.14156E-04   -0.99424E-04 53964   0.155E-01
  10 F= -.30769321E+03 E0= -.30768922E+03  d E =-.236904E-01
       N       E                     dE             d eps       ncg     rms          rms(c)
DAV:   1    -0.307692409556E+03    0.81200E-03   -0.54069E-01 41520   0.282E+00    0.508E-01
DAV:   2    -0.307699015376E+03   -0.66058E-02   -0.90886E-02 70152   0.148E+00    0.570E-01
DAV:   3    -0.307696946615E+03    0.20688E-02   -0.54067E-02 71928   0.104E+00    0.478E-01
DAV:   4    -0.307695871907E+03    0.10747E-02   -0.24318E-02 62196   0.762E-01    0.376E-01
DAV:   5    -0.307694432518E+03    0.14394E-02   -0.11641E-02 67284   0.470E-01    0.166E-01
DAV:   6    -0.307694257680E+03    0.17484E-03   -0.41515E-03 66108   0.299E-01    0.141E-01
DAV:   7    -0.307694204202E+03    0.53478E-04   -0.27799E-03 58704   0.249E-01    0.112E-01
DAV:   8    -0.307694119152E+03    0.85050E-04   -0.12179E-03 56592   0.169E-01    0.671E-02
DAV:   9    -0.307694082780E+03    0.36372E-04   -0.24702E-04 31092   0.940E-02
  11 F= -.30769408E+03 E0= -.30769011E+03  d E =-.245658E-01
       N       E                     dE             d eps       ncg     rms          rms(c)
DAV:   1    -0.307693797895E+03    0.32126E-03   -0.15771E+00 41280   0.435E+00    0.417E-01
DAV:   2    -0.307712747236E+03   -0.18949E-01   -0.18673E-01 67476   0.223E+00    0.719E-01
DAV:   3    -0.307708612528E+03    0.41347E-02   -0.54851E-02 69564   0.121E+00    0.396E-01
DAV:   4    -0.307707666782E+03    0.94575E-03   -0.12261E-02 66516   0.579E-01    0.254E-01
DAV:   5    -0.307707015864E+03    0.65092E-03   -0.43144E-03 63720   0.295E-01    0.164E-01
DAV:   6    -0.307707067855E+03   -0.51991E-04   -0.27355E-03 60972   0.252E-01    0.183E-01
DAV:   7    -0.307706996197E+03    0.71659E-04   -0.30600E-03 64704   0.257E-01    0.145E-01
DAV:   8    -0.307706841251E+03    0.15495E-03   -0.22182E-03 62460   0.203E-01    0.101E-01
DAV:   9    -0.307706746402E+03    0.94849E-04   -0.87209E-04 51840   0.145E-01
  12 F= -.30770675E+03 E0= -.30770291E+03  d E =-.126636E-01
       N       E                     dE             d eps       ncg     rms          rms(c)
DAV:   1    -0.307607249568E+03    0.99592E-01   -0.14210E+01 41280   0.131E+01    0.134E+00
DAV:   2    -0.307778712362E+03   -0.17146E+00   -0.16835E+00 68100   0.667E+00    0.213E+00
DAV:   3    -0.307743997814E+03    0.34715E-01   -0.49230E-01 68976   0.360E+00    0.127E+00
DAV:   4    -0.307734318588E+03    0.96792E-02   -0.12309E-01 68652   0.184E+00    0.766E-01
DAV:   5    -0.307728036302E+03    0.62823E-02   -0.40885E-02 68952   0.900E-01    0.487E-01
DAV:   6    -0.307728588113E+03   -0.55181E-03   -0.23977E-02 65136   0.734E-01    0.544E-01
DAV:   7    -0.307727503859E+03    0.10843E-02   -0.23959E-02 65916   0.711E-01    0.399E-01
DAV:   8    -0.307726582456E+03    0.92140E-03   -0.17884E-02 68712   0.586E-01    0.305E-01
DAV:   9    -0.307725718553E+03    0.86390E-03   -0.77635E-03 71424   0.407E-01    0.140E-01
DAV:  10    -0.307725588775E+03    0.12978E-03   -0.27060E-03 67968   0.202E-01    0.875E-02
DAV:  11    -0.307725530931E+03    0.57844E-04   -0.71519E-04 48840   0.122E-01
  13 F= -.30772553E+03 E0= -.30772222E+03  d E =-.314482E-01
       N       E                     dE             d eps       ncg     rms          rms(c)
DAV:   1    -0.307724014601E+03    0.15742E-02   -0.24193E+00 41280   0.535E+00    0.737E-01
DAV:   2    -0.307747661374E+03   -0.23647E-01   -0.30060E-01 68604   0.264E+00    0.931E-01
DAV:   3    -0.307745768371E+03    0.18930E-02   -0.13987E-01 66360   0.175E+00    0.819E-01
DAV:   4    -0.307739954241E+03    0.58141E-02   -0.43474E-02 67056   0.958E-01    0.373E-01
DAV:   5    -0.307739396267E+03    0.55797E-03   -0.21292E-02 66852   0.688E-01    0.354E-01
DAV:   6    -0.307738574160E+03    0.82211E-03   -0.13303E-02 68292   0.542E-01    0.223E-01
DAV:   7    -0.307738292238E+03    0.28192E-03   -0.71403E-03 66468   0.357E-01    0.159E-01
DAV:   8    -0.307738085749E+03    0.20649E-03   -0.34048E-03 63492   0.257E-01    0.122E-01
DAV:   9    -0.307737933445E+03    0.15230E-03   -0.11642E-03 55764   0.156E-01    0.625E-02
DAV:  10    -0.307737919210E+03    0.14235E-04   -0.18642E-04 29184   0.968E-02
  14 F= -.30773792E+03 E0= -.30773516E+03  d E =-.123883E-01
       N       E                     dE             d eps       ncg     rms          rms(c)
DAV:   1    -0.307698869853E+03    0.39064E-01   -0.81399E+00 41280   0.981E+00    0.135E+00
DAV:   2    -0.307776526854E+03   -0.77657E-01   -0.99250E-01 68532   0.478E+00    0.164E+00
DAV:   3    -0.307772777040E+03    0.37498E-02   -0.44732E-01 66564   0.316E+00    0.152E+00
DAV:   4    -0.307752212526E+03    0.20565E-01   -0.14330E-01 68664   0.179E+00    0.652E-01
DAV:   5    -0.307750512564E+03    0.17000E-02   -0.68495E-02 66828   0.120E+00    0.635E-01
DAV:   6    -0.307748099568E+03    0.24130E-02   -0.45304E-02 68628   0.101E+00    0.420E-01
DAV:   7    -0.307746843710E+03    0.12559E-02   -0.22540E-02 75468   0.631E-01    0.259E-01
DAV:   8    -0.307746285910E+03    0.55780E-03   -0.92352E-03 67896   0.382E-01    0.197E-01
DAV:   9    -0.307745928148E+03    0.35776E-03   -0.30756E-03 63024   0.242E-01    0.117E-01
DAV:  10    -0.307745930587E+03   -0.24395E-05   -0.10080E-03 53544   0.147E-01    0.101E-01
DAV:  11    -0.307745959998E+03   -0.29411E-04   -0.64699E-04 45828   0.127E-01
  15 F= -.30774596E+03 E0= -.30774428E+03  d E =-.204291E-01
       N       E                     dE             d eps       ncg     rms          rms(c)
DAV:   1    -0.307748215172E+03   -0.22846E-02   -0.33979E-01 41304   0.198E+00    0.230E-01
DAV:   2    -0.307751989936E+03   -0.37748E-02   -0.41954E-02 67812   0.932E-01    0.349E-01
DAV:   3    -0.307751186775E+03    0.80316E-03   -0.17031E-02 67356   0.593E-01    0.251E-01
DAV:   4    -0.307750745848E+03    0.44093E-03   -0.44470E-03 58968   0.305E-01    0.138E-01
DAV:   5    -0.307750604692E+03    0.14116E-03   -0.17471E-03 59040   0.190E-01    0.101E-01
DAV:   6    -0.307750565991E+03    0.38701E-04   -0.10943E-03 51888   0.174E-01    0.900E-02
DAV:   7    -0.307750582623E+03   -0.16632E-04   -0.12335E-03 54132   0.181E-01    0.967E-02
DAV:   8    -0.307750483810E+03    0.98813E-04   -0.65569E-04 46536   0.148E-01
  16 F= -.30775048E+03 E0= -.30774903E+03  d E =-.452381E-02
       N       E                     dE             d eps       ncg     rms          rms(c)
DAV:   1    -0.307740270923E+03    0.10312E-01   -0.30452E+00 41280   0.589E+00    0.686E-01
DAV:   2    -0.307772208123E+03   -0.31937E-01   -0.36202E-01 67668   0.286E+00    0.103E+00
DAV:   3    -0.307767044993E+03    0.51631E-02   -0.13445E-01 66960   0.181E+00    0.742E-01
DAV:   4    -0.307762525604E+03    0.45194E-02   -0.35390E-02 68676   0.893E-01    0.336E-01
DAV:   5    -0.307761653298E+03    0.87231E-03   -0.12794E-02 67296   0.486E-01    0.296E-01
DAV:   6    -0.307761186538E+03    0.46676E-03   -0.94877E-03 66756   0.472E-01    0.229E-01
DAV:   7    -0.307761071237E+03    0.11530E-03   -0.74970E-03 70836   0.393E-01    0.200E-01
DAV:   8    -0.307760679966E+03    0.39127E-03   -0.42827E-03 63900   0.284E-01    0.104E-01
DAV:   9    -0.307760573929E+03    0.10604E-03   -0.10487E-03 51900   0.161E-01    0.713E-02
DAV:  10    -0.307760539484E+03    0.34446E-04   -0.22811E-04 28404   0.969E-02
  17 F= -.30776054E+03 E0= -.30775971E+03  d E =-.145795E-01
       N       E                     dE             d eps       ncg     rms          rms(c)
DAV:   1    -0.307683434688E+03    0.77139E-01   -0.12226E+01 41280   0.118E+01    0.138E+00
DAV:   2    -0.307809736837E+03   -0.12630E+00   -0.14320E+00 67596   0.565E+00    0.203E+00
DAV:   3    -0.307790857070E+03    0.18880E-01   -0.53458E-01 67188   0.358E+00    0.150E+00
DAV:   4    -0.307772634866E+03    0.18222E-01   -0.14627E-01 69816   0.181E+00    0.682E-01
DAV:   5    -0.307768544065E+03    0.40908E-02   -0.48884E-02 68148   0.911E-01    0.557E-01
DAV:   6    -0.307767368358E+03    0.11757E-02   -0.35834E-02 69744   0.914E-01    0.484E-01
DAV:   7    -0.307766915046E+03    0.45331E-03   -0.32982E-02 69888   0.844E-01    0.431E-01
DAV:   8    -0.307765013131E+03    0.19019E-02   -0.17865E-02 73152   0.580E-01    0.192E-01
DAV:   9    -0.307764654737E+03    0.35839E-03   -0.42457E-03 61248   0.296E-01    0.143E-01
DAV:  10    -0.307764598534E+03    0.56203E-04   -0.16990E-03 60720   0.181E-01    0.102E-01
DAV:  11    -0.307764575460E+03    0.23074E-04   -0.59253E-04 44580   0.117E-01
  18 F= -.30776458E+03 E0= -.30776497E+03  d E =-.186155E-01
       N       E                     dE             d eps       ncg     rms          rms(c)
DAV:   1    -0.307765095209E+03   -0.49668E-03   -0.11242E+00 41280   0.349E+00    0.340E-01
DAV:   2    -0.307778154723E+03   -0.13060E-01   -0.12111E-01 67608   0.180E+00    0.721E-01
DAV:   3    -0.307773853378E+03    0.43013E-02   -0.39379E-02 67212   0.106E+00    0.296E-01
DAV:   4    -0.307773246402E+03    0.60698E-03   -0.57316E-03 63984   0.379E-01    0.177E-01
DAV:   5    -0.307772989294E+03    0.25711E-03   -0.26223E-03 63588   0.218E-01    0.133E-01
DAV:   6    -0.307773007610E+03   -0.18316E-04   -0.20448E-03 58800   0.214E-01    0.150E-01
DAV:   7    -0.307772980944E+03    0.26666E-04   -0.22471E-03 58812   0.227E-01    0.138E-01
DAV:   8    -0.307772789175E+03    0.19177E-03   -0.15311E-03 58212   0.188E-01    0.610E-02
DAV:   9    -0.307772747853E+03    0.41322E-04   -0.34093E-04 35820   0.977E-02
  19 F= -.30777275E+03 E0= -.30777334E+03  d E =-.817239E-02
       N       E                     dE             d eps       ncg     rms          rms(c)
DAV:   1    -0.307721025021E+03    0.51764E-01   -0.10076E+01 41280   0.104E+01    0.105E+00
DAV:   2    -0.307821261623E+03   -0.10024E+00   -0.99471E-01 66444   0.511E+00    0.174E+00
DAV:   3    -0.307804594367E+03    0.16667E-01   -0.31366E-01 66564   0.302E+00    0.104E+00
DAV:   4    -0.307795642472E+03    0.89519E-02   -0.59954E-02 67464   0.126E+00    0.476E-01
DAV:   5    -0.307793850018E+03    0.17925E-02   -0.18652E-02 69420   0.559E-01    0.396E-01
DAV:   6    -0.307793788950E+03    0.61068E-04   -0.13784E-02 66948   0.557E-01    0.399E-01
DAV:   7    -0.307793327187E+03    0.46176E-03   -0.13551E-02 65292   0.549E-01    0.333E-01
DAV:   8    -0.307792158210E+03    0.11690E-02   -0.10238E-02 68892   0.448E-01    0.157E-01
DAV:   9    -0.307792032055E+03    0.12615E-03   -0.34881E-03 66228   0.273E-01    0.133E-01
DAV:  10    -0.307791888551E+03    0.14350E-03   -0.18839E-03 58908   0.182E-01    0.679E-02
DAV:  11    -0.307791844532E+03    0.44018E-04   -0.28242E-04 34884   0.108E-01
  20 F= -.30779184E+03 E0= -.30779290E+03  d E =-.272691E-01
       N       E                     dE             d eps       ncg     rms          rms(c)
DAV:   1    -0.307513627263E+03    0.27826E+00   -0.40425E+01 41280   0.210E+01    0.225E+00
DAV:   2    -0.307930483894E+03   -0.41686E+00   -0.40618E+00 65436   0.103E+01    0.365E+00
DAV:   3    -0.307855713385E+03    0.74771E-01   -0.14213E+00 66924   0.644E+00    0.218E+00
DAV:   4    -0.307815721161E+03    0.39992E-01   -0.27917E-01 66756   0.272E+00    0.102E+00
DAV:   5    -0.307807823089E+03    0.78981E-02   -0.80580E-02 72276   0.114E+00    0.824E-01
DAV:   6    -0.307807593997E+03    0.22909E-03   -0.52771E-02 70092   0.109E+00    0.828E-01
DAV:   7    -0.307805763301E+03    0.18307E-02   -0.52649E-02 65352   0.110E+00    0.683E-01
DAV:   8    -0.307801229172E+03    0.45341E-02   -0.39562E-02 69168   0.908E-01    0.340E-01
DAV:   9    -0.307800343998E+03    0.88517E-03   -0.15434E-02 77712   0.576E-01    0.245E-01
DAV:  10    -0.307799841749E+03    0.50225E-03   -0.73239E-03 68712   0.327E-01    0.131E-01
DAV:  11    -0.307799683975E+03    0.15777E-03   -0.14906E-03 60456   0.172E-01    0.934E-02
DAV:  12    -0.307799657288E+03    0.26686E-04   -0.90752E-04 50568   0.148E-01
  21 F= -.30779966E+03 E0= -.30780123E+03  d E =-.350818E-01
       N       E                     dE             d eps       ncg     rms          rms(c)
DAV:   1    -0.307819387211E+03   -0.19703E-01   -0.60821E+00 41280   0.947E+00    0.200E+00
DAV:   2    -0.307849844957E+03   -0.30458E-01   -0.78906E-01 70284   0.440E+00    0.164E+00
DAV:   3    -0.307879123135E+03   -0.29278E-01   -0.63848E-01 68040   0.400E+00    0.242E+00
DAV:   4    -0.307825943572E+03    0.53180E-01   -0.35182E-01 68136   0.311E+00    0.824E-01
DAV:   5    -0.307817710377E+03    0.82332E-02   -0.10076E-01 70068   0.122E+00    0.528E-01
DAV:   6    -0.307817596621E+03    0.11376E-03   -0.57841E-02 75216   0.104E+00    0.582E-01
DAV:   7    -0.307815052861E+03    0.25438E-02   -0.27903E-02 70440   0.789E-01    0.301E-01
DAV:   8    -0.307814548896E+03    0.50396E-03   -0.87746E-03 63516   0.429E-01    0.227E-01
DAV:   9    -0.307814361150E+03    0.18775E-03   -0.42774E-03 60288   0.296E-01    0.166E-01
DAV:  10    -0.307814449864E+03   -0.88713E-04   -0.21202E-03 60048   0.214E-01    0.138E-01
DAV:  11    -0.307814513059E+03   -0.63196E-04   -0.15768E-03 59784   0.177E-01    0.889E-02
DAV:  12    -0.307814592902E+03   -0.79842E-04   -0.14191E-03 58992   0.185E-01    0.961E-02
DAV:  13    -0.307814545290E+03    0.47612E-04   -0.12154E-03 59964   0.159E-01    0.435E-02
DAV:  14    -0.307814533562E+03    0.11728E-04   -0.16675E-04 27312   0.877E-02
  22 F= -.30781453E+03 E0= -.30781618E+03  d E =-.148763E-01
       N       E                     dE             d eps       ncg     rms          rms(c)
DAV:   1    -0.307814621223E+03   -0.75933E-04   -0.14310E-02 43752   0.461E-01    0.107E-01
DAV:   2    -0.307814759250E+03   -0.13803E-03   -0.25399E-03 71700   0.259E-01    0.118E-01
DAV:   3    -0.307814721083E+03    0.38167E-04   -0.19602E-03 58536   0.229E-01    0.104E-01
DAV:   4    -0.307814618311E+03    0.10277E-03   -0.81394E-04 49272   0.148E-01    0.507E-02
DAV:   5    -0.307814583565E+03    0.34747E-04   -0.21738E-04 31968   0.953E-02
  23 F= -.30781458E+03 E0= -.30781622E+03  d E =-.149263E-01
       N       E                     dE             d eps       ncg     rms          rms(c)
DAV:   1    -0.307825729639E+03   -0.11111E-01   -0.14730E+00 41280   0.390E+00    0.473E-01
DAV:   2    -0.307838483225E+03   -0.12754E-01   -0.14285E-01 68976   0.199E+00    0.860E-01
DAV:   3    -0.307832995348E+03    0.54879E-02   -0.73378E-02 66528   0.135E+00    0.437E-01
DAV:   4    -0.307831560403E+03    0.14349E-02   -0.17176E-02 62496   0.596E-01    0.244E-01
DAV:   5    -0.307831109374E+03    0.45103E-03   -0.83163E-03 67716   0.418E-01    0.207E-01
DAV:   6    -0.307830870463E+03    0.23891E-03   -0.55111E-03 66456   0.326E-01    0.142E-01
DAV:   7    -0.307830769844E+03    0.10062E-03   -0.33149E-03 63852   0.251E-01    0.122E-01
DAV:   8    -0.307830663593E+03    0.10625E-03   -0.17650E-03 60168   0.203E-01    0.872E-02
DAV:   9    -0.307830563703E+03    0.99889E-04   -0.45119E-04 39696   0.115E-01
  24 F= -.30783056E+03 E0= -.30783213E+03  d E =-.159801E-01
       N       E                     dE             d eps       ncg     rms          rms(c)
DAV:   1    -0.307822538190E+03    0.81254E-02   -0.63777E+00 41280   0.815E+00    0.974E-01
DAV:   2    -0.307878101880E+03   -0.55564E-01   -0.61694E-01 68904   0.410E+00    0.180E+00
DAV:   3    -0.307854238631E+03    0.23863E-01   -0.31666E-01 66468   0.280E+00    0.906E-01
DAV:   4    -0.307848106048E+03    0.61326E-02   -0.72641E-02 70800   0.120E+00    0.495E-01
DAV:   5    -0.307846246026E+03    0.18600E-02   -0.35002E-02 72084   0.818E-01    0.426E-01
DAV:   6    -0.307845508100E+03    0.73793E-03   -0.23548E-02 72552   0.708E-01    0.332E-01
DAV:   7    -0.307844898540E+03    0.60956E-03   -0.14507E-02 76440   0.551E-01    0.261E-01
DAV:   8    -0.307844305785E+03    0.59275E-03   -0.79216E-03 64356   0.386E-01    0.170E-01
DAV:   9    -0.307843987922E+03    0.31786E-03   -0.24128E-03 63636   0.206E-01    0.806E-02
DAV:  10    -0.307843953310E+03    0.34611E-04   -0.45714E-04 41508   0.996E-02
  25 F= -.30784395E+03 E0= -.30784544E+03  d E =-.293697E-01
       N       E                     dE             d eps       ncg     rms          rms(c)
DAV:   1    -0.307858458070E+03   -0.14470E-01   -0.29814E+00 41280   0.651E+00    0.137E+00
DAV:   2    -0.307868049911E+03   -0.95918E-02   -0.35039E-01 69744   0.270E+00    0.924E-01
DAV:   3    -0.307877135735E+03   -0.90858E-02   -0.26495E-01 70524   0.211E+00    0.133E+00
DAV:   4    -0.307863406329E+03    0.13729E-01   -0.18068E-01 65796   0.191E+00    0.818E-01
DAV:   5    -0.307856620920E+03    0.67854E-02   -0.69691E-02 69804   0.113E+00    0.374E-01
DAV:   6    -0.307856105943E+03    0.51498E-03   -0.23452E-02 75912   0.627E-01    0.342E-01
DAV:   7    -0.307855431359E+03    0.67458E-03   -0.13855E-02 68100   0.527E-01    0.255E-01
DAV:   8    -0.307855073413E+03    0.35795E-03   -0.55948E-03 59604   0.360E-01    0.164E-01
DAV:   9    -0.307854909719E+03    0.16369E-03   -0.17381E-03 60096   0.202E-01    0.108E-01
DAV:  10    -0.307854954975E+03   -0.45255E-04   -0.67407E-04 46008   0.130E-01
  26 F= -.30785495E+03 E0= -.30785643E+03  d E =-.110017E-01
       N       E                     dE             d eps       ncg     rms          rms(c)
DAV:   1    -0.307855433893E+03   -0.52417E-03   -0.13146E-01 42144   0.138E+00    0.287E-01
DAV:   2    -0.307856091238E+03   -0.65734E-03   -0.17337E-02 69972   0.658E-01    0.274E-01
DAV:   3    -0.307856257402E+03   -0.16616E-03   -0.16659E-02 67584   0.607E-01    0.314E-01
DAV:   4    -0.307855361036E+03    0.89637E-03   -0.69352E-03 59004   0.413E-01    0.119E-01
DAV:   5    -0.307855221418E+03    0.13962E-03   -0.24774E-03 61524   0.203E-01    0.993E-02
DAV:   6    -0.307855192579E+03    0.28839E-04   -0.12614E-03 53892   0.182E-01    0.908E-02
DAV:   7    -0.307855126087E+03    0.66493E-04   -0.45823E-04 39528   0.122E-01
  27 F= -.30785513E+03 E0= -.30785659E+03  d E =-.111728E-01
       N       E                     dE             d eps       ncg     rms          rms(c)
DAV:   1    -0.307850999450E+03    0.41931E-02   -0.25309E+00 41280   0.523E+00    0.595E-01
DAV:   2    -0.307869957016E+03   -0.18958E-01   -0.23933E-01 67380   0.227E+00    0.611E-01
DAV:   3    -0.307871666075E+03   -0.17091E-02   -0.81073E-02 66744   0.145E+00    0.728E-01
DAV:   4    -0.307866718502E+03    0.49476E-02   -0.30366E-02 64356   0.897E-01    0.268E-01
DAV:   5    -0.307866286490E+03    0.43201E-03   -0.80385E-03 68100   0.392E-01    0.238E-01
DAV:   6    -0.307866258778E+03    0.27713E-04   -0.64993E-03 68160   0.409E-01    0.229E-01
DAV:   7    -0.307865837486E+03    0.42129E-03   -0.57438E-03 67728   0.339E-01    0.134E-01
DAV:   8    -0.307865654062E+03    0.18342E-03   -0.20724E-03 65064   0.202E-01    0.993E-02
DAV:   9    -0.307865556160E+03    0.97901E-04   -0.10072E-03 50460   0.151E-01    0.583E-02
DAV:  10    -0.307865525469E+03    0.30692E-04   -0.18138E-04 27456   0.920E-02
  28 F= -.30786553E+03 E0= -.30786697E+03  d E =-.103994E-01
       N       E                     dE             d eps       ncg     rms          rms(c)
DAV:   1    -0.307849340303E+03    0.16216E-01   -0.35829E+00 41280   0.622E+00    0.700E-01
DAV:   2    -0.307875491777E+03   -0.26151E-01   -0.33192E-01 67176   0.268E+00    0.681E-01
DAV:   3    -0.307878540738E+03   -0.30490E-02   -0.10778E-01 66720   0.166E+00    0.853E-01
DAV:   4    -0.307871640926E+03    0.68998E-02   -0.42794E-02 64416   0.105E+00    0.307E-01
DAV:   5    -0.307871073055E+03    0.56787E-03   -0.11231E-02 70344   0.461E-01    0.274E-01
DAV:   6    -0.307871062604E+03    0.10451E-04   -0.88639E-03 66696   0.474E-01    0.267E-01
DAV:   7    -0.307870447890E+03    0.61471E-03   -0.75030E-03 70596   0.386E-01    0.149E-01
DAV:   8    -0.307870230050E+03    0.21784E-03   -0.25189E-03 67332   0.218E-01    0.112E-01
DAV:   9    -0.307870118791E+03    0.11126E-03   -0.12590E-03 54876   0.160E-01    0.661E-02
DAV:  10    -0.307870084404E+03    0.34387E-04   -0.20697E-04 29196   0.937E-02
  29 F= -.30787008E+03 E0= -.30787150E+03  d E =-.149583E-01
       N       E                     dE             d eps       ncg     rms          rms(c)
DAV:   1    -0.307869926667E+03    0.19212E-03   -0.91560E-01 41448   0.323E+00    0.313E-01
DAV:   2    -0.307878336944E+03   -0.84103E-02   -0.91027E-02 67344   0.160E+00    0.492E-01
DAV:   3    -0.307876846885E+03    0.14901E-02   -0.30302E-02 67512   0.899E-01    0.314E-01
DAV:   4    -0.307876068052E+03    0.77883E-03   -0.79845E-03 61884   0.446E-01    0.183E-01
DAV:   5    -0.307875806281E+03    0.26177E-03   -0.34005E-03 62076   0.282E-01    0.138E-01
DAV:   6    -0.307875723061E+03    0.83220E-04   -0.17762E-03 58476   0.199E-01    0.112E-01
DAV:   7    -0.307875739617E+03   -0.16556E-04   -0.17363E-03 57984   0.206E-01    0.117E-01
DAV:   8    -0.307875600502E+03    0.13911E-03   -0.10942E-03 54780   0.181E-01    0.584E-02
DAV:   9    -0.307875547307E+03    0.53195E-04   -0.21589E-04 32652   0.868E-02
  30 F= -.30787555E+03 E0= -.30787695E+03  d E =-.546290E-02
       N       E                     dE             d eps       ncg     rms          rms(c)
DAV:   1    -0.307847207320E+03    0.28393E-01   -0.53560E+00 41280   0.782E+00    0.774E-01
DAV:   2    -0.307896733698E+03   -0.49526E-01   -0.53675E-01 67476   0.390E+00    0.117E+00
DAV:   3    -0.307888880512E+03    0.78532E-02   -0.18200E-01 67284   0.216E+00    0.790E-01
DAV:   4    -0.307883876540E+03    0.50040E-02   -0.50505E-02 66420   0.113E+00    0.443E-01
DAV:   5    -0.307882338945E+03    0.15376E-02   -0.20695E-02 66588   0.695E-01    0.326E-01
DAV:   6    -0.307881788722E+03    0.55022E-03   -0.98564E-03 68460   0.462E-01    0.252E-01
DAV:   7    -0.307881962216E+03   -0.17349E-03   -0.93275E-03 66828   0.458E-01    0.275E-01
DAV:   8    -0.307881192829E+03    0.76939E-03   -0.59170E-03 65508   0.398E-01    0.137E-01
DAV:   9    -0.307880962882E+03    0.22995E-03   -0.18349E-03 61548   0.175E-01    0.497E-02
DAV:  10    -0.307880943219E+03    0.19663E-04   -0.21444E-04 31596   0.730E-02
  31 F= -.30788094E+03 E0= -.30788229E+03  d E =-.108588E-01
       N       E                     dE             d eps       ncg     rms          rms(c)
DAV:   1    -0.307880005444E+03    0.95744E-03   -0.97842E-01 41280   0.351E+00    0.542E-01
DAV:   2    -0.307886567941E+03   -0.65625E-02   -0.11120E-01 69216   0.161E+00    0.496E-01
DAV:   3    -0.307887352390E+03   -0.78445E-03   -0.52881E-02 68784   0.119E+00    0.589E-01
DAV:   4    -0.307884386035E+03    0.29664E-02   -0.28303E-02 60972   0.851E-01    0.287E-01
DAV:   5    -0.307883681568E+03    0.70447E-03   -0.96136E-03 68136   0.437E-01    0.200E-01
DAV:   6    -0.307883438429E+03    0.24314E-03   -0.55761E-03 68304   0.330E-01    0.152E-01
DAV:   7    -0.307883322839E+03    0.11559E-03   -0.36508E-03 61308   0.263E-01    0.132E-01
DAV:   8    -0.307883246026E+03    0.76814E-04   -0.17465E-03 56832   0.207E-01    0.932E-02
DAV:   9    -0.307883142626E+03    0.10340E-03   -0.37210E-04 36048   0.115E-01    0.431E-02
DAV:  10    -0.307883143736E+03   -0.11104E-05   -0.14278E-04 26832   0.691E-02
  32 F= -.30788314E+03 E0= -.30788440E+03  d E =-.220052E-02
       N       E                     dE             d eps       ncg     rms          rms(c)
DAV:   1    -0.307883021001E+03    0.12162E-03   -0.49113E-02 41760   0.787E-01    0.120E-01
DAV:   2    -0.307883388734E+03   -0.36773E-03   -0.57114E-03 68472   0.376E-01    0.125E-01
DAV:   3    -0.307883380585E+03    0.81488E-05   -0.30257E-03 63108   0.293E-01    0.134E-01
DAV:   4    -0.307883219910E+03    0.16067E-03   -0.12036E-03 52044   0.189E-01    0.559E-02
DAV:   5    -0.307883180257E+03    0.39654E-04   -0.31389E-04 35940   0.875E-02
  33 F= -.30788318E+03 E0= -.30788442E+03  d E =-.223704E-02
       N       E                     dE             d eps       ncg     rms          rms(c)
DAV:   1    -0.307882429643E+03    0.79027E-03   -0.65154E-01 41280   0.292E+00    0.476E-01
DAV:   2    -0.307887909581E+03   -0.54799E-02   -0.79906E-02 68100   0.133E+00    0.494E-01
DAV:   3    -0.307887721396E+03    0.18819E-03   -0.44561E-02 69252   0.103E+00    0.498E-01
DAV:   4    -0.307885735983E+03    0.19854E-02   -0.17384E-02 62640   0.672E-01    0.247E-01
DAV:   5    -0.307885101755E+03    0.63423E-03   -0.77696E-03 64092   0.371E-01    0.163E-01
DAV:   6    -0.307885060427E+03    0.41328E-04   -0.44582E-03 59820   0.338E-01    0.155E-01
DAV:   7    -0.307884866165E+03    0.19426E-03   -0.22855E-03 60492   0.235E-01    0.865E-02
DAV:   8    -0.307884801829E+03    0.64337E-04   -0.72376E-04 45756   0.148E-01
  34 F= -.30788480E+03 E0= -.30788599E+03  d E =-.162157E-02
       N       E                     dE             d eps       ncg     rms          rms(c)
DAV:   1    -0.307884715387E+03    0.15078E-03   -0.24082E-02 42576   0.577E-01    0.860E-02
DAV:   2    -0.307884941702E+03   -0.22632E-03   -0.30074E-03 65220   0.254E-01    0.942E-02
DAV:   3    -0.307884904684E+03    0.37019E-04   -0.15686E-03 56640   0.185E-01    0.852E-02
DAV:   4    -0.307884853195E+03    0.51489E-04   -0.45002E-04 40824   0.122E-01
  35 F= -.30788485E+03 E0= -.30788603E+03  d E =-.167294E-02
       N       E                     dE             d eps       ncg     rms          rms(c)
DAV:   1    -0.307885172219E+03   -0.26754E-03   -0.10719E-01 41292   0.105E+00    0.104E-01
DAV:   2    -0.307885941922E+03   -0.76970E-03   -0.87432E-03 68400   0.484E-01    0.167E-01
DAV:   3    -0.307885764367E+03    0.17756E-03   -0.32327E-03 60204   0.292E-01    0.107E-01
DAV:   4    -0.307885681230E+03    0.83137E-04   -0.91907E-04 51600   0.147E-01
  36 F= -.30788568E+03 E0= -.30788687E+03  d E =-.828036E-03
       N       E                     dE             d eps       ncg     rms          rms(c)
DAV:   1    -0.307884859235E+03    0.90513E-03   -0.28840E-01 41280   0.172E+00    0.165E-01
DAV:   2    -0.307886684951E+03   -0.18257E-02   -0.21761E-02 68100   0.754E-01    0.249E-01
DAV:   3    -0.307886385976E+03    0.29897E-03   -0.76625E-03 66108   0.452E-01    0.174E-01
DAV:   4    -0.307886135896E+03    0.25008E-03   -0.20898E-03 56592   0.222E-01    0.859E-02
DAV:   5    -0.307886093613E+03    0.42282E-04   -0.82718E-04 49884   0.121E-01
  37 F= -.30788609E+03 E0= -.30788731E+03  d E =-.124042E-02
       N       E                     dE             d eps       ncg     rms          rms(c)
DAV:   1    -0.307886561044E+03   -0.42515E-03   -0.78987E-02 41352   0.110E+00    0.232E-01
DAV:   2    -0.307887341509E+03   -0.78046E-03   -0.14271E-02 70620   0.647E-01    0.267E-01
DAV:   3    -0.307887033594E+03    0.30791E-03   -0.10826E-02 64356   0.533E-01    0.228E-01
DAV:   4    -0.307886706888E+03    0.32671E-03   -0.52468E-03 61956   0.345E-01    0.143E-01
DAV:   5    -0.307886516142E+03    0.19075E-03   -0.22417E-03 60036   0.219E-01    0.103E-01
DAV:   6    -0.307886426111E+03    0.90031E-04   -0.12174E-03 54696   0.164E-01    0.628E-02
DAV:   7    -0.307886400677E+03    0.25434E-04   -0.41629E-04 38328   0.118E-01
  38 F= -.30788640E+03 E0= -.30788760E+03  d E =-.307063E-03
       N       E                     dE             d eps       ncg     rms          rms(c)
DAV:   1    -0.307886435504E+03   -0.93929E-05   -0.89132E-03 56040   0.386E-01    0.726E-02
DAV:   2    -0.307886698659E+03   -0.26316E-03   -0.25338E-03 69936   0.258E-01    0.148E-01
DAV:   3    -0.307886440856E+03    0.25780E-03   -0.17163E-03 56532   0.201E-01    0.573E-02
DAV:   4    -0.307886422375E+03    0.18481E-04   -0.30285E-04 35640   0.953E-02
  39 F= -.30788642E+03 E0= -.30788764E+03  d E =-.328761E-03
