<?xml version="1.0" encoding="ISO-8859-1"?>
<modeling>
 <generator>
  <i name="program" type="string">vasp </i>
  <i name="version" type="string">5.4.4.18Apr17-6-g9f103f2a35  </i>
  <i name="subversion" type="string">(build Aug 09 2018 16:20:53) complex            parallel </i>
  <i name="platform" type="string">LinuxIFC </i>
  <i name="date" type="string">2020 04 30 </i>
  <i name="time" type="string">12:50:55 </i>
 </generator>
 <incar>
  <i type="string" name="SYSTEM"> Nb - Mo - Ta - Ti - V SQS</i>
  <i type="string" name="PREC">normal</i>
  <i type="int" name="ICHARG">     0</i>
  <i type="int" name="IBRION">     2</i>
  <i type="int" name="NSW">    50</i>
  <i type="int" name="ISIF">     3</i>
  <i name="ENCUT">    600.00000000</i>
  <i type="string" name="LREAL"> Auto</i>
  <i type="int" name="ISMEAR">     1</i>
  <i name="SIGMA">      0.20000000</i>
  <v type="int" name="KPOINT_BSE">    -1     0     0     0</v>
  <i type="string" name="GGA"> PS</i>
 </incar>
 <structure name="primitive_cell" >
  <crystal>
   <varray name="basis" >
    <v>      -3.16000000      -3.16000000      -3.16000000 </v>
    <v>       1.58000000       1.58000000      -7.90000000 </v>
    <v>       7.90000000      -7.90000000      -1.58000000 </v>
   </varray>
   <i name="volume">    473.31744000 </i>
   <varray name="rec_basis" >
    <v>      -0.13713080      -0.12658228      -0.05274262 </v>
    <v>       0.04219409       0.06329114      -0.10548523 </v>
    <v>       0.06329114      -0.06329114       0.00000000 </v>
   </varray>
  </crystal>
  <varray name="positions" >
   <v>      -0.03333333      -0.06666667       0.40000000 </v>
   <v>       0.30000000      -0.40000000       0.40000000 </v>
   <v>      -0.10000000      -0.20000000       0.20000000 </v>
   <v>       0.06666667       0.13333333       0.20000000 </v>
   <v>       0.46666667      -0.06666667       0.40000000 </v>
   <v>      -0.13333333      -0.26666667      -0.40000000 </v>
   <v>       0.03333333       0.06666667      -0.40000000 </v>
   <v>      -0.36666667       0.26666667       0.40000000 </v>
   <v>       0.40000000      -0.20000000       0.20000000 </v>
   <v>      -0.20000000      -0.40000000       0.40000000 </v>
   <v>      -0.43333333       0.13333333       0.20000000 </v>
   <v>       0.36666667      -0.26666667      -0.40000000 </v>
   <v>       0.13333333       0.26666667       0.40000000 </v>
   <v>      -0.46666667       0.06666667      -0.40000000 </v>
   <v>       0.23333333       0.46666667       0.20000000 </v>
   <v>       0.20000000       0.40000000      -0.40000000 </v>
   <v>       0.00000000       0.00000000       0.00000000 </v>
   <v>      -0.06666667      -0.13333333      -0.20000000 </v>
   <v>      -0.30000000       0.40000000      -0.40000000 </v>
   <v>      -0.26666667       0.46666667       0.20000000 </v>
   <v>       0.33333333      -0.33333333       0.00000000 </v>
   <v>       0.43333333      -0.13333333      -0.20000000 </v>
   <v>      -0.50000000       0.00000000       0.00000000 </v>
   <v>       0.26666667      -0.46666667      -0.20000000 </v>
   <v>      -0.33333333       0.33333333       0.00000000 </v>
   <v>      -0.40000000       0.20000000      -0.20000000 </v>
   <v>      -0.16666667      -0.33333333       0.00000000 </v>
   <v>       0.16666667       0.33333333       0.00000000 </v>
   <v>       0.10000000       0.20000000      -0.20000000 </v>
  </varray>
 </structure>
 <varray name="primitive_index" >
  <v type="int" >        1 </v>
  <v type="int" >       18 </v>
  <v type="int" >        7 </v>
  <v type="int" >       24 </v>
  <v type="int" >       20 </v>
  <v type="int" >       19 </v>
  <v type="int" >        6 </v>
  <v type="int" >        2 </v>
  <v type="int" >       16 </v>
  <v type="int" >        8 </v>
  <v type="int" >       15 </v>
  <v type="int" >       11 </v>
  <v type="int" >       12 </v>
  <v type="int" >       27 </v>
  <v type="int" >       29 </v>
  <v type="int" >       23 </v>
  <v type="int" >        4 </v>
  <v type="int" >       14 </v>
  <v type="int" >       25 </v>
  <v type="int" >        9 </v>
  <v type="int" >       28 </v>
  <v type="int" >       17 </v>
  <v type="int" >        3 </v>
  <v type="int" >       22 </v>
  <v type="int" >       10 </v>
  <v type="int" >       26 </v>
  <v type="int" >       13 </v>
  <v type="int" >       21 </v>
  <v type="int" >        5 </v>
 </varray>
 <kpoints>
  <generation param="Gamma">
   <v type="int" name="divisions">       7        7        7 </v>
   <v name="usershift">      0.00000000       0.00000000       0.00000000 </v>
   <v name="genvec1">      0.14285714       0.00000000       0.00000000 </v>
   <v name="genvec2">     -0.00000000       0.14285714       0.00000000 </v>
   <v name="genvec3">      0.00000000       0.00000000       0.14285714 </v>
   <v name="shift">      0.00000000       0.00000000       0.00000000 </v>
  </generation>
  <varray name="kpointlist" >
   <v>       0.00000000       0.00000000       0.00000000 </v>
   <v>       0.14285714       0.00000000      -0.00000000 </v>
   <v>       0.28571429       0.00000000       0.00000000 </v>
   <v>       0.42857143       0.00000000      -0.00000000 </v>
   <v>      -0.00000000       0.14285714       0.00000000 </v>
   <v>       0.14285714       0.14285714      -0.00000000 </v>
   <v>       0.28571429       0.14285714       0.00000000 </v>
   <v>       0.42857143       0.14285714      -0.00000000 </v>
   <v>      -0.42857143       0.14285714       0.00000000 </v>
   <v>      -0.28571429       0.14285714       0.00000000 </v>
   <v>      -0.14285714       0.14285714       0.00000000 </v>
   <v>       0.00000000       0.28571429      -0.00000000 </v>
   <v>       0.14285714       0.28571429      -0.00000000 </v>
   <v>       0.28571429       0.28571429      -0.00000000 </v>
   <v>       0.42857143       0.28571429      -0.00000000 </v>
   <v>      -0.42857143       0.28571429      -0.00000000 </v>
   <v>      -0.28571429       0.28571429      -0.00000000 </v>
   <v>      -0.14285714       0.28571429      -0.00000000 </v>
   <v>      -0.00000000       0.42857143      -0.00000000 </v>
   <v>       0.14285714       0.42857143       0.00000000 </v>
   <v>       0.28571429       0.42857143       0.00000000 </v>
   <v>       0.42857143       0.42857143      -0.00000000 </v>
   <v>      -0.42857143       0.42857143       0.00000000 </v>
   <v>      -0.28571429       0.42857143      -0.00000000 </v>
   <v>      -0.14285714       0.42857143      -0.00000000 </v>
   <v>       0.00000000       0.00000000       0.14285714 </v>
   <v>       0.14285714       0.00000000       0.14285714 </v>
   <v>       0.28571429       0.00000000       0.14285714 </v>
   <v>       0.42857143       0.00000000       0.14285714 </v>
   <v>      -0.42857143       0.00000000       0.14285714 </v>
   <v>      -0.28571429       0.00000000       0.14285714 </v>
   <v>      -0.14285714      -0.00000000       0.14285714 </v>
   <v>      -0.00000000       0.14285714       0.14285714 </v>
   <v>       0.14285714       0.14285714       0.14285714 </v>
   <v>       0.28571429       0.14285714       0.14285714 </v>
   <v>       0.42857143       0.14285714       0.14285714 </v>
   <v>      -0.42857143       0.14285714       0.14285714 </v>
   <v>      -0.28571429       0.14285714       0.14285714 </v>
   <v>      -0.14285714       0.14285714       0.14285714 </v>
   <v>      -0.00000000       0.28571429       0.14285714 </v>
   <v>       0.14285714       0.28571429       0.14285714 </v>
   <v>       0.28571429       0.28571429       0.14285714 </v>
   <v>       0.42857143       0.28571429       0.14285714 </v>
   <v>      -0.42857143       0.28571429       0.14285714 </v>
   <v>      -0.28571429       0.28571429       0.14285714 </v>
   <v>      -0.14285714       0.28571429       0.14285714 </v>
   <v>       0.00000000       0.42857143       0.14285714 </v>
   <v>       0.14285714       0.42857143       0.14285714 </v>
   <v>       0.28571429       0.42857143       0.14285714 </v>
   <v>       0.42857143       0.42857143       0.14285714 </v>
   <v>      -0.42857143       0.42857143       0.14285714 </v>
   <v>      -0.28571429       0.42857143       0.14285714 </v>
   <v>      -0.14285714       0.42857143       0.14285714 </v>
   <v>       0.00000000      -0.42857143       0.14285714 </v>
   <v>       0.14285714      -0.42857143       0.14285714 </v>
   <v>       0.28571429      -0.42857143       0.14285714 </v>
   <v>       0.42857143      -0.42857143       0.14285714 </v>
   <v>      -0.42857143      -0.42857143       0.14285714 </v>
   <v>      -0.28571429      -0.42857143       0.14285714 </v>
   <v>      -0.14285714      -0.42857143       0.14285714 </v>
   <v>       0.00000000      -0.28571429       0.14285714 </v>
   <v>       0.14285714      -0.28571429       0.14285714 </v>
   <v>       0.28571429      -0.28571429       0.14285714 </v>
   <v>       0.42857143      -0.28571429       0.14285714 </v>
   <v>      -0.42857143      -0.28571429       0.14285714 </v>
   <v>      -0.28571429      -0.28571429       0.14285714 </v>
   <v>      -0.14285714      -0.28571429       0.14285714 </v>
   <v>       0.00000000      -0.14285714       0.14285714 </v>
   <v>       0.14285714      -0.14285714       0.14285714 </v>
   <v>       0.28571429      -0.14285714       0.14285714 </v>
   <v>       0.42857143      -0.14285714       0.14285714 </v>
   <v>      -0.42857143      -0.14285714       0.14285714 </v>
   <v>      -0.28571429      -0.14285714       0.14285714 </v>
   <v>      -0.14285714      -0.14285714       0.14285714 </v>
   <v>       0.00000000       0.00000000       0.28571429 </v>
   <v>       0.14285714       0.00000000       0.28571429 </v>
   <v>       0.28571429       0.00000000       0.28571429 </v>
   <v>       0.42857143       0.00000000       0.28571429 </v>
   <v>      -0.42857143      -0.00000000       0.28571429 </v>
   <v>      -0.28571429      -0.00000000       0.28571429 </v>
   <v>      -0.14285714      -0.00000000       0.28571429 </v>
   <v>      -0.00000000       0.14285714       0.28571429 </v>
   <v>       0.14285714       0.14285714       0.28571429 </v>
   <v>       0.28571429       0.14285714       0.28571429 </v>
   <v>       0.42857143       0.14285714       0.28571429 </v>
   <v>      -0.42857143       0.14285714       0.28571429 </v>
   <v>      -0.28571429       0.14285714       0.28571429 </v>
   <v>      -0.14285714       0.14285714       0.28571429 </v>
   <v>      -0.00000000       0.28571429       0.28571429 </v>
   <v>       0.14285714       0.28571429       0.28571429 </v>
   <v>       0.28571429       0.28571429       0.28571429 </v>
   <v>       0.42857143       0.28571429       0.28571429 </v>
   <v>      -0.42857143       0.28571429       0.28571429 </v>
   <v>      -0.28571429       0.28571429       0.28571429 </v>
   <v>      -0.14285714       0.28571429       0.28571429 </v>
   <v>       0.00000000       0.42857143       0.28571429 </v>
   <v>       0.14285714       0.42857143       0.28571429 </v>
   <v>       0.28571429       0.42857143       0.28571429 </v>
   <v>       0.42857143       0.42857143       0.28571429 </v>
   <v>      -0.42857143       0.42857143       0.28571429 </v>
   <v>      -0.28571429       0.42857143       0.28571429 </v>
   <v>      -0.14285714       0.42857143       0.28571429 </v>
   <v>      -0.00000000      -0.42857143       0.28571429 </v>
   <v>       0.14285714      -0.42857143       0.28571429 </v>
   <v>       0.28571429      -0.42857143       0.28571429 </v>
   <v>       0.42857143      -0.42857143       0.28571429 </v>
   <v>      -0.42857143      -0.42857143       0.28571429 </v>
   <v>      -0.28571429      -0.42857143       0.28571429 </v>
   <v>      -0.14285714      -0.42857143       0.28571429 </v>
   <v>       0.00000000      -0.28571429       0.28571429 </v>
   <v>       0.14285714      -0.28571429       0.28571429 </v>
   <v>       0.28571429      -0.28571429       0.28571429 </v>
   <v>       0.42857143      -0.28571429       0.28571429 </v>
   <v>      -0.42857143      -0.28571429       0.28571429 </v>
   <v>      -0.28571429      -0.28571429       0.28571429 </v>
   <v>      -0.14285714      -0.28571429       0.28571429 </v>
   <v>       0.00000000      -0.14285714       0.28571429 </v>
   <v>       0.14285714      -0.14285714       0.28571429 </v>
   <v>       0.28571429      -0.14285714       0.28571429 </v>
   <v>       0.42857143      -0.14285714       0.28571429 </v>
   <v>      -0.42857143      -0.14285714       0.28571429 </v>
   <v>      -0.28571429      -0.14285714       0.28571429 </v>
   <v>      -0.14285714      -0.14285714       0.28571429 </v>
   <v>       0.00000000       0.00000000       0.42857143 </v>
   <v>       0.14285714       0.00000000       0.42857143 </v>
   <v>       0.28571429       0.00000000       0.42857143 </v>
   <v>       0.42857143      -0.00000000       0.42857143 </v>
   <v>      -0.42857143      -0.00000000       0.42857143 </v>
   <v>      -0.28571429       0.00000000       0.42857143 </v>
   <v>      -0.14285714      -0.00000000       0.42857143 </v>
   <v>      -0.00000000       0.14285714       0.42857143 </v>
   <v>       0.14285714       0.14285714       0.42857143 </v>
   <v>       0.28571429       0.14285714       0.42857143 </v>
   <v>       0.42857143       0.14285714       0.42857143 </v>
   <v>      -0.42857143       0.14285714       0.42857143 </v>
   <v>      -0.28571429       0.14285714       0.42857143 </v>
   <v>      -0.14285714       0.14285714       0.42857143 </v>
   <v>       0.00000000       0.28571429       0.42857143 </v>
   <v>       0.14285714       0.28571429       0.42857143 </v>
   <v>       0.28571429       0.28571429       0.42857143 </v>
   <v>       0.42857143       0.28571429       0.42857143 </v>
   <v>      -0.42857143       0.28571429       0.42857143 </v>
   <v>      -0.28571429       0.28571429       0.42857143 </v>
   <v>      -0.14285714       0.28571429       0.42857143 </v>
   <v>       0.00000000       0.42857143       0.42857143 </v>
   <v>       0.14285714       0.42857143       0.42857143 </v>
   <v>       0.28571429       0.42857143       0.42857143 </v>
   <v>       0.42857143       0.42857143       0.42857143 </v>
   <v>      -0.42857143       0.42857143       0.42857143 </v>
   <v>      -0.28571429       0.42857143       0.42857143 </v>
   <v>      -0.14285714       0.42857143       0.42857143 </v>
   <v>       0.00000000      -0.42857143       0.42857143 </v>
   <v>       0.14285714      -0.42857143       0.42857143 </v>
   <v>       0.28571429      -0.42857143       0.42857143 </v>
   <v>       0.42857143      -0.42857143       0.42857143 </v>
   <v>      -0.42857143      -0.42857143       0.42857143 </v>
   <v>      -0.28571429      -0.42857143       0.42857143 </v>
   <v>      -0.14285714      -0.42857143       0.42857143 </v>
   <v>      -0.00000000      -0.28571429       0.42857143 </v>
   <v>       0.14285714      -0.28571429       0.42857143 </v>
   <v>       0.28571429      -0.28571429       0.42857143 </v>
   <v>       0.42857143      -0.28571429       0.42857143 </v>
   <v>      -0.42857143      -0.28571429       0.42857143 </v>
   <v>      -0.28571429      -0.28571429       0.42857143 </v>
   <v>      -0.14285714      -0.28571429       0.42857143 </v>
   <v>       0.00000000      -0.14285714       0.42857143 </v>
   <v>       0.14285714      -0.14285714       0.42857143 </v>
   <v>       0.28571429      -0.14285714       0.42857143 </v>
   <v>       0.42857143      -0.14285714       0.42857143 </v>
   <v>      -0.42857143      -0.14285714       0.42857143 </v>
   <v>      -0.28571429      -0.14285714       0.42857143 </v>
   <v>      -0.14285714      -0.14285714       0.42857143 </v>
  </varray>
  <varray name="weights" >
   <v>       0.00291545 </v>
   <v>       0.00583090 </v>
   <v>       0.00583090 </v>
   <v>       0.00583090 </v>
   <v>       0.00583090 </v>
   <v>       0.00583090 </v>
   <v>       0.00583090 </v>
   <v>       0.00583090 </v>
   <v>       0.00583090 </v>
   <v>       0.00583090 </v>
   <v>       0.00583090 </v>
   <v>       0.00583090 </v>
   <v>       0.00583090 </v>
   <v>       0.00583090 </v>
   <v>       0.00583090 </v>
   <v>       0.00583090 </v>
   <v>       0.00583090 </v>
   <v>       0.00583090 </v>
   <v>       0.00583090 </v>
   <v>       0.00583090 </v>
   <v>       0.00583090 </v>
   <v>       0.00583090 </v>
   <v>       0.00583090 </v>
   <v>       0.00583090 </v>
   <v>       0.00583090 </v>
   <v>       0.00583090 </v>
   <v>       0.00583090 </v>
   <v>       0.00583090 </v>
   <v>       0.00583090 </v>
   <v>       0.00583090 </v>
   <v>       0.00583090 </v>
   <v>       0.00583090 </v>
   <v>       0.00583090 </v>
   <v>       0.00583090 </v>
   <v>       0.00583090 </v>
   <v>       0.00583090 </v>
   <v>       0.00583090 </v>
   <v>       0.00583090 </v>
   <v>       0.00583090 </v>
   <v>       0.00583090 </v>
   <v>       0.00583090 </v>
   <v>       0.00583090 </v>
   <v>       0.00583090 </v>
   <v>       0.00583090 </v>
   <v>       0.00583090 </v>
   <v>       0.00583090 </v>
   <v>       0.00583090 </v>
   <v>       0.00583090 </v>
   <v>       0.00583090 </v>
   <v>       0.00583090 </v>
   <v>       0.00583090 </v>
   <v>       0.00583090 </v>
   <v>       0.00583090 </v>
   <v>       0.00583090 </v>
   <v>       0.00583090 </v>
   <v>       0.00583090 </v>
   <v>       0.00583090 </v>
   <v>       0.00583090 </v>
   <v>       0.00583090 </v>
   <v>       0.00583090 </v>
   <v>       0.00583090 </v>
   <v>       0.00583090 </v>
   <v>       0.00583090 </v>
   <v>       0.00583090 </v>
   <v>       0.00583090 </v>
   <v>       0.00583090 </v>
   <v>       0.00583090 </v>
   <v>       0.00583090 </v>
   <v>       0.00583090 </v>
   <v>       0.00583090 </v>
   <v>       0.00583090 </v>
   <v>       0.00583090 </v>
   <v>       0.00583090 </v>
   <v>       0.00583090 </v>
   <v>       0.00583090 </v>
   <v>       0.00583090 </v>
   <v>       0.00583090 </v>
   <v>       0.00583090 </v>
   <v>       0.00583090 </v>
   <v>       0.00583090 </v>
   <v>       0.00583090 </v>
   <v>       0.00583090 </v>
   <v>       0.00583090 </v>
   <v>       0.00583090 </v>
   <v>       0.00583090 </v>
   <v>       0.00583090 </v>
   <v>       0.00583090 </v>
   <v>       0.00583090 </v>
   <v>       0.00583090 </v>
   <v>       0.00583090 </v>
   <v>       0.00583090 </v>
   <v>       0.00583090 </v>
   <v>       0.00583090 </v>
   <v>       0.00583090 </v>
   <v>       0.00583090 </v>
   <v>       0.00583090 </v>
   <v>       0.00583090 </v>
   <v>       0.00583090 </v>
   <v>       0.00583090 </v>
   <v>       0.00583090 </v>
   <v>       0.00583090 </v>
   <v>       0.00583090 </v>
   <v>       0.00583090 </v>
   <v>       0.00583090 </v>
   <v>       0.00583090 </v>
   <v>       0.00583090 </v>
   <v>       0.00583090 </v>
   <v>       0.00583090 </v>
   <v>       0.00583090 </v>
   <v>       0.00583090 </v>
   <v>       0.00583090 </v>
   <v>       0.00583090 </v>
   <v>       0.00583090 </v>
   <v>       0.00583090 </v>
   <v>       0.00583090 </v>
   <v>       0.00583090 </v>
   <v>       0.00583090 </v>
   <v>       0.00583090 </v>
   <v>       0.00583090 </v>
   <v>       0.00583090 </v>
   <v>       0.00583090 </v>
   <v>       0.00583090 </v>
   <v>       0.00583090 </v>
   <v>       0.00583090 </v>
   <v>       0.00583090 </v>
   <v>       0.00583090 </v>
   <v>       0.00583090 </v>
   <v>       0.00583090 </v>
   <v>       0.00583090 </v>
   <v>       0.00583090 </v>
   <v>       0.00583090 </v>
   <v>       0.00583090 </v>
   <v>       0.00583090 </v>
   <v>       0.00583090 </v>
   <v>       0.00583090 </v>
   <v>       0.00583090 </v>
   <v>       0.00583090 </v>
   <v>       0.00583090 </v>
   <v>       0.00583090 </v>
   <v>       0.00583090 </v>
   <v>       0.00583090 </v>
   <v>       0.00583090 </v>
   <v>       0.00583090 </v>
   <v>       0.00583090 </v>
   <v>       0.00583090 </v>
   <v>       0.00583090 </v>
   <v>       0.00583090 </v>
   <v>       0.00583090 </v>
   <v>       0.00583090 </v>
   <v>       0.00583090 </v>
   <v>       0.00583090 </v>
   <v>       0.00583090 </v>
   <v>       0.00583090 </v>
   <v>       0.00583090 </v>
   <v>       0.00583090 </v>
   <v>       0.00583090 </v>
   <v>       0.00583090 </v>
   <v>       0.00583090 </v>
   <v>       0.00583090 </v>
   <v>       0.00583090 </v>
   <v>       0.00583090 </v>
   <v>       0.00583090 </v>
   <v>       0.00583090 </v>
   <v>       0.00583090 </v>
   <v>       0.00583090 </v>
   <v>       0.00583090 </v>
   <v>       0.00583090 </v>
   <v>       0.00583090 </v>
   <v>       0.00583090 </v>
   <v>       0.00583090 </v>
   <v>       0.00583090 </v>
   <v>       0.00583090 </v>
  </varray>
 </kpoints>
 <parameters>
  <separator name="general" >
   <i type="string" name="SYSTEM">Nb - Mo - Ta - Ti - V SQS</i>
   <i type="logical" name="LCOMPAT"> F  </i>
  </separator>
  <separator name="electronic" >
   <i type="string" name="PREC">normal</i>
   <i name="ENMAX">    600.00000000</i>
   <i name="ENAUG">    455.65900000</i>
   <i name="EDIFF">      0.00010000</i>
   <i type="int" name="IALGO">    38</i>
   <i type="int" name="IWAVPR">    11</i>
   <i type="int" name="NBANDS">   120</i>
   <i name="NELECT">    193.00000000</i>
   <i type="int" name="TURBO">     0</i>
   <i type="int" name="IRESTART">     0</i>
   <i type="int" name="NREBOOT">     0</i>
   <i type="int" name="NMIN">     0</i>
   <i name="EREF">      0.00000000</i>
   <separator name="electronic smearing" >
    <i type="int" name="ISMEAR">     1</i>
    <i name="SIGMA">      0.20000000</i>
    <i name="KSPACING">      0.50000000</i>
    <i type="logical" name="KGAMMA"> T  </i>
   </separator>
   <separator name="electronic projectors" >
    <i type="logical" name="LREAL"> T  </i>
    <v name="ROPT">     -0.00050000     -0.00050000     -0.00050000     -0.00050000     -0.00050000</v>
    <i type="int" name="LMAXPAW">  -100</i>
    <i type="int" name="LMAXMIX">     2</i>
    <i type="logical" name="NLSPLINE"> F  </i>
   </separator>
   <separator name="electronic startup" >
    <i type="int" name="ISTART">     0</i>
    <i type="int" name="ICHARG">     0</i>
    <i type="int" name="INIWAV">     1</i>
   </separator>
   <separator name="electronic spin" >
    <i type="int" name="ISPIN">     1</i>
    <i type="logical" name="LNONCOLLINEAR"> F  </i>
    <v name="MAGMOM">      1.00000000      1.00000000      1.00000000      1.00000000      1.00000000      1.00000000      1.00000000      1.00000000      1.00000000      1.00000000      1.00000000      1.00000000      1.00000000      1.00000000      1.00000000      1.00000000      1.00000000      1.00000000      1.00000000      1.00000000
      1.00000000      1.00000000      1.00000000      1.00000000      1.00000000      1.00000000      1.00000000      1.00000000      1.00000000</v>
    <i name="NUPDOWN">     -1.00000000</i>
    <i type="logical" name="LSORBIT"> F  </i>
    <v name="SAXIS">      0.00000000      0.00000000      1.00000000</v>
    <i type="logical" name="LSPIRAL"> F  </i>
    <v name="QSPIRAL">      0.00000000      0.00000000      0.00000000</v>
    <i type="logical" name="LZEROZ"> F  </i>
   </separator>
   <separator name="electronic exchange-correlation" >
    <i type="logical" name="LASPH"> F  </i>
    <i type="logical" name="LMETAGGA"> F  </i>
   </separator>
   <separator name="electronic convergence" >
    <i type="int" name="NELM">    60</i>
    <i type="int" name="NELMDL">    -5</i>
    <i type="int" name="NELMIN">     2</i>
    <i name="ENINI">    600.00000000</i>
    <separator name="electronic convergence detail" >
     <i type="logical" name="LDIAG"> T  </i>
     <i type="logical" name="LSUBROT"> F  </i>
     <i name="WEIMIN">      0.00100000</i>
     <i name="EBREAK">      0.00000021</i>
     <i name="DEPER">      0.30000000</i>
     <i type="int" name="NRMM">     4</i>
     <i name="TIME">      0.40000000</i>
    </separator>
   </separator>
   <separator name="electronic mixer" >
    <i name="AMIX">      0.40000000</i>
    <i name="BMIX">      1.00000000</i>
    <i name="AMIN">      0.10000000</i>
    <i name="AMIX_MAG">      1.60000000</i>
    <i name="BMIX_MAG">      1.00000000</i>
    <separator name="electronic mixer details" >
     <i type="int" name="IMIX">     4</i>
     <i type="logical" name="MIXFIRST"> F  </i>
     <i type="int" name="MAXMIX">   -45</i>
     <i name="WC">    100.00000000</i>
     <i type="int" name="INIMIX">     1</i>
     <i type="int" name="MIXPRE">     1</i>
     <i type="int" name="MREMOVE">     5</i>
    </separator>
   </separator>
   <separator name="electronic dipolcorrection" >
    <i type="logical" name="LDIPOL"> F  </i>
    <i type="logical" name="LMONO"> F  </i>
    <i type="int" name="IDIPOL">     0</i>
    <i name="EPSILON">      1.00000000</i>
    <v name="DIPOL">   -100.00000000   -100.00000000   -100.00000000</v>
    <i name="EFIELD">      0.00000000</i>
   </separator>
  </separator>
  <separator name="grids" >
   <i type="int" name="NGX">    36</i>
   <i type="int" name="NGY">    50</i>
   <i type="int" name="NGZ">    70</i>
   <i type="int" name="NGXF">    72</i>
   <i type="int" name="NGYF">   100</i>
   <i type="int" name="NGZF">   140</i>
   <i type="logical" name="ADDGRID"> F  </i>
  </separator>
  <separator name="ionic" >
   <i type="int" name="NSW">    50</i>
   <i type="int" name="IBRION">     2</i>
   <i type="int" name="MDALGO">     0</i>
   <i type="int" name="ISIF">     3</i>
   <i name="PSTRESS">      0.00000000</i>
   <i name="EDIFFG">      0.00100000</i>
   <i type="int" name="NFREE">     1</i>
   <i name="POTIM">      0.50000000</i>
   <i name="SMASS">     -3.00000000</i>
   <i name="SCALEE">      1.00000000</i>
  </separator>
  <separator name="ionic md" >
   <i name="TEBEG">      0.00010000</i>
   <i name="TEEND">      0.00010000</i>
   <i type="int" name="NBLOCK">     1</i>
   <i type="int" name="KBLOCK">    50</i>
   <i type="int" name="NPACO">   256</i>
   <i name="APACO">     16.00000000</i>
  </separator>
  <separator name="symmetry" >
   <i type="int" name="ISYM">     2</i>
   <i name="SYMPREC">      0.00001000</i>
  </separator>
  <separator name="dos" >
   <i type="int" name="LORBIT">     0</i>
   <v name="RWIGS">     -1.00000000     -1.00000000     -1.00000000     -1.00000000     -1.00000000</v>
   <i type="int" name="NEDOS">   301</i>
   <i name="EMIN">     10.00000000</i>
   <i name="EMAX">    -10.00000000</i>
   <i name="EFERMI">      0.00000000</i>
  </separator>
  <separator name="writing" >
   <i type="int" name="NWRITE">     2</i>
   <i type="logical" name="LWAVE"> T  </i>
   <i type="logical" name="LDOWNSAMPLE"> F  </i>
   <i type="logical" name="LCHARG"> T  </i>
   <i type="logical" name="LPARD"> F  </i>
   <i type="logical" name="LVTOT"> F  </i>
   <i type="logical" name="LVHAR"> F  </i>
   <i type="logical" name="LELF"> F  </i>
   <i type="logical" name="LOPTICS"> F  </i>
   <v name="STM">      0.00000000      0.00000000      0.00000000      0.00000000      0.00000000      0.00000000      0.00000000</v>
  </separator>
  <separator name="performance" >
   <i type="int" name="NPAR">    12</i>
   <i type="int" name="NSIM">     4</i>
   <i type="int" name="NBLK">    -1</i>
   <i type="logical" name="LPLANE"> T  </i>
   <i type="logical" name="LSCALAPACK"> T  </i>
   <i type="logical" name="LSCAAWARE"> F  </i>
   <i type="logical" name="LSCALU"> F  </i>
   <i type="logical" name="LASYNC"> F  </i>
   <i type="logical" name="LORBITALREAL"> F  </i>
  </separator>
  <separator name="miscellaneous" >
   <i type="int" name="IDIOT">     3</i>
   <i type="int" name="ISPECIAL">     0</i>
   <i type="logical" name="LMUSIC"> F  </i>
   <v name="POMASS">     92.91000000     95.94000000    180.94800000     47.88000000     50.94100000</v>
   <v name="DARWINR">      0.00000000      0.00000000      0.00000000      0.00000000      0.00000000</v>
   <v name="DARWINV">      1.00000000      1.00000000      1.00000000      1.00000000      1.00000000</v>
   <i type="logical" name="LCORR"> T  </i>
  </separator>
  <i type="logical" name="GGA_COMPAT"> T  </i>
  <i type="logical" name="LBERRY"> F  </i>
  <i type="int" name="ICORELEVEL">     0</i>
  <i type="logical" name="LDAU"> F  </i>
  <i type="int" name="I_CONSTRAINED_M">     0</i>
  <separator name="electronic exchange-correlation" >
   <i type="string" name="GGA">PS</i>
   <i type="int" name="VOSKOWN">     0</i>
   <i type="logical" name="LHFCALC"> F  </i>
   <i type="string" name="PRECFOCK"></i>
   <i type="logical" name="LSYMGRAD"> F  </i>
   <i type="logical" name="LHFONE"> F  </i>
   <i type="logical" name="LRHFCALC"> F  </i>
   <i type="logical" name="LTHOMAS"> F  </i>
   <i type="logical" name="LMODELHF"> F  </i>
   <i name="ENCUT4O">     -1.00000000</i>
   <i type="int" name="EXXOEP">     0</i>
   <i type="int" name="FOURORBIT">     0</i>
   <i name="AEXX">      0.00000000</i>
   <i name="HFALPHA">      0.00000000</i>
   <i name="MCALPHA">      0.00000000</i>
   <i name="ALDAX">      1.00000000</i>
   <i name="AGGAX">      1.00000000</i>
   <i name="ALDAC">      1.00000000</i>
   <i name="AGGAC">      1.00000000</i>
   <i type="int" name="NKREDX">     1</i>
   <i type="int" name="NKREDY">     1</i>
   <i type="int" name="NKREDZ">     1</i>
   <i type="logical" name="SHIFTRED"> F  </i>
   <i type="logical" name="ODDONLY"> F  </i>
   <i type="logical" name="EVENONLY"> F  </i>
   <i type="int" name="LMAXFOCK">     0</i>
   <i type="int" name="NMAXFOCKAE">     0</i>
   <i type="logical" name="LFOCKAEDFT"> F  </i>
   <i name="HFSCREEN">      0.00000000</i>
   <i name="HFSCREENC">      0.00000000</i>
   <i type="int" name="NBANDSGWLOW">     0</i>
  </separator>
  <separator name="vdW DFT" >
   <i type="logical" name="LUSE_VDW"> F  </i>
   <i name="Zab_VDW">     -0.84910000</i>
   <i name="PARAM1">      0.12340000</i>
   <i name="PARAM2">      1.00000000</i>
   <i name="PARAM3">      0.00000000</i>
  </separator>
  <separator name="model GW" >
   <i type="int" name="MODEL_GW">     0</i>
   <i name="MODEL_EPS0">      9.79277462</i>
   <i name="MODEL_ALPHA">      1.00000000</i>
  </separator>
  <separator name="linear response parameters" >
   <i type="logical" name="LEPSILON"> F  </i>
   <i type="logical" name="LRPA"> F  </i>
   <i type="logical" name="LNABLA"> F  </i>
   <i type="logical" name="LVEL"> F  </i>
   <i type="int" name="KINTER">     0</i>
   <i name="CSHIFT">      0.10000000</i>
   <i name="OMEGAMAX">     -1.00000000</i>
   <i name="DEG_THRESHOLD">      0.00200000</i>
   <i name="RTIME">     -0.10000000</i>
   <i name="WPLASMAI">      0.00000000</i>
   <v name="DFIELD">      0.00000000      0.00000000      0.00000000</v>
   <v name="WPLASMA">      0.00000000      0.00000000      0.00000000      0.00000000      0.00000000      0.00000000      0.00000000      0.00000000      0.00000000</v>
  </separator>
  <separator name="orbital magnetization" >
   <i type="logical" name="NUCIND"> F  </i>
   <v name="MAGPOS">      0.00000000      0.00000000      0.00000000</v>
   <i type="logical" name="LNICSALL"> T  </i>
   <i type="logical" name="ORBITALMAG"> F  </i>
   <i type="logical" name="LMAGBLOCH"> F  </i>
   <i type="logical" name="LCHIMAG"> F  </i>
   <i type="logical" name="LGAUGE"> T  </i>
   <i type="int" name="MAGATOM">     0</i>
   <v name="MAGDIPOL">      0.00000000      0.00000000      0.00000000</v>
   <v name="AVECCONST">      0.00000000      0.00000000      0.00000000</v>
  </separator>
  <separator name="response functions" >
   <i type="logical" name="LADDER"> F  </i>
   <i type="logical" name="LRPAFORCE"> F  </i>
   <i type="logical" name="LFXC"> F  </i>
   <i type="logical" name="LHARTREE"> T  </i>
   <i type="int" name="IBSE">     0</i>
   <v type="int" name="KPOINT">    -1     0     0     0</v>
   <i type="logical" name="LTCTE"> F  </i>
   <i type="logical" name="LTETE"> F  </i>
   <i type="logical" name="LTRIPLET"> F  </i>
   <i type="logical" name="LFXCEPS"> F  </i>
   <i type="logical" name="LFXHEG"> F  </i>
   <i type="int" name="NATURALO">     2</i>
   <i type="logical" name="L2ORDER"> F  </i>
   <i type="logical" name="LMP2LT"> F  </i>
   <i type="logical" name="LUSEW"> F  </i>
   <i name="ENCUTGW">     -2.00000000</i>
   <i name="ENCUTGWSOFT">     -2.00000000</i>
   <i name="ENCUTLF">     -1.00000000</i>
   <i type="int" name="LMAXMP2">    -1</i>
   <i name="SCISSOR">      0.00000000</i>
   <i type="int" name="NOMEGA">     0</i>
   <i type="int" name="NOMEGAR">     0</i>
   <i type="int" name="NBANDSGW">    -1</i>
   <i type="int" name="NBANDSO">    -1</i>
   <i type="int" name="NBANDSV">    -1</i>
   <i type="int" name="NELM">     1</i>
   <i type="int" name="NELMHF">     1</i>
   <i type="int" name="DIM">     3</i>
   <i type="int" name="ANTIRES">     0</i>
   <i name="OMEGAMAX">    -30.00000000</i>
   <i name="OMEGAMIN">    -30.00000000</i>
   <i name="OMEGATL">   -200.00000000</i>
   <i type="int" name="OMEGAGRID">   140</i>
   <i name="CSHIFT">     -0.10000000</i>
   <i type="logical" name="SELFENERGY"> F  </i>
   <i type="logical" name="LSPECTRAL"> F  </i>
   <i type="logical" name="LSPECTRALGW"> F  </i>
   <i type="logical" name="LSINGLES"> F  </i>
   <i type="logical" name="LFERMIGW"> F  </i>
   <i type="logical" name="ODDONLYGW"> F  </i>
   <i type="logical" name="EVENONLYGW"> F  </i>
   <i type="int" name="NKREDLFX">     1</i>
   <i type="int" name="NKREDLFY">     1</i>
   <i type="int" name="NKREDLFZ">     1</i>
   <i type="int" name="MAXMEM">  2800</i>
   <i type="int" name="TELESCOPE">     0</i>
   <i type="int" name="TAUPAR">     1</i>
   <i type="int" name="OMEGAPAR">    -1</i>
   <i name="LAMBDA">      1.00000000</i>
  </separator>
  <separator name="External order field" >
   <i name="OFIELD_KAPPA">      0.00000000</i>
   <v name="OFIELD_K">      0.00000000      0.00000000      0.00000000</v>
   <i name="OFIELD_Q6_NEAR">      0.00000000</i>
   <i name="OFIELD_Q6_FAR">      0.00000000</i>
   <i name="OFIELD_A">      0.00000000</i>
  </separator>
  <separator name="solvation model" >
   <i type="logical" name="LSOL"> F  </i>
  </separator>
 </parameters>
 <atominfo>
  <atoms>      29 </atoms>
  <types>       5 </types>
  <array name="atoms" >
   <dimension dim="1">ion</dimension>
   <field type="string">element</field>
   <field type="int">atomtype</field>
   <set>
    <rc><c>Nb</c><c>   1</c></rc>
    <rc><c>Nb</c><c>   1</c></rc>
    <rc><c>Nb</c><c>   1</c></rc>
    <rc><c>Nb</c><c>   1</c></rc>
    <rc><c>Nb</c><c>   1</c></rc>
    <rc><c>Nb</c><c>   1</c></rc>
    <rc><c>Mo</c><c>   2</c></rc>
    <rc><c>Mo</c><c>   2</c></rc>
    <rc><c>Mo</c><c>   2</c></rc>
    <rc><c>Mo</c><c>   2</c></rc>
    <rc><c>Mo</c><c>   2</c></rc>
    <rc><c>Mo</c><c>   2</c></rc>
    <rc><c>Ta</c><c>   3</c></rc>
    <rc><c>Ta</c><c>   3</c></rc>
    <rc><c>Ta</c><c>   3</c></rc>
    <rc><c>Ta</c><c>   3</c></rc>
    <rc><c>Ta</c><c>   3</c></rc>
    <rc><c>Ta</c><c>   3</c></rc>
    <rc><c>Ti</c><c>   4</c></rc>
    <rc><c>Ti</c><c>   4</c></rc>
    <rc><c>Ti</c><c>   4</c></rc>
    <rc><c>Ti</c><c>   4</c></rc>
    <rc><c>Ti</c><c>   4</c></rc>
    <rc><c>Ti</c><c>   4</c></rc>
    <rc><c>V </c><c>   5</c></rc>
    <rc><c>V </c><c>   5</c></rc>
    <rc><c>V </c><c>   5</c></rc>
    <rc><c>V </c><c>   5</c></rc>
    <rc><c>V </c><c>   5</c></rc>
   </set>
  </array>
  <array name="atomtypes" >
   <dimension dim="1">type</dimension>
   <field type="int">atomspertype</field>
   <field type="string">element</field>
   <field>mass</field>
   <field>valence</field>
   <field type="string">pseudopotential</field>
   <set>
    <rc><c>   6</c><c>Nb</c><c>     92.91000000</c><c>     13.00000000</c><c>  PAW_PBE Nb_sv 25May2007               </c></rc>
    <rc><c>   6</c><c>Mo</c><c>     95.94000000</c><c>      6.00000000</c><c>  PAW_PBE Mo 08Apr2002                  </c></rc>
    <rc><c>   6</c><c>Ta</c><c>    180.94800000</c><c>      5.00000000</c><c>  PAW_PBE Ta 17Jan2003                  </c></rc>
    <rc><c>   6</c><c>Ti</c><c>     47.88000000</c><c>      4.00000000</c><c>  PAW_PBE Ti 08Apr2002                  </c></rc>
    <rc><c>   5</c><c>V </c><c>     50.94100000</c><c>      5.00000000</c><c>  PAW_PBE V 08Apr2002                   </c></rc>
   </set>
  </array>
 </atominfo>
 <structure name="initialpos" >
  <crystal>
   <varray name="basis" >
    <v>      -3.16000000      -3.16000000      -3.16000000 </v>
    <v>       1.58000000       1.58000000      -7.90000000 </v>
    <v>       7.90000000      -7.90000000      -1.58000000 </v>
   </varray>
   <i name="volume">    473.31744000 </i>
   <varray name="rec_basis" >
    <v>      -0.13713080      -0.12658228      -0.05274262 </v>
    <v>       0.04219409       0.06329114      -0.10548523 </v>
    <v>       0.06329114      -0.06329114       0.00000000 </v>
   </varray>
  </crystal>
  <varray name="positions" >
   <v>       0.96666667       0.93333333       0.40000000 </v>
   <v>       0.63333333       0.26666667       0.40000000 </v>
   <v>       0.50000000       0.00000000       0.00000000 </v>
   <v>       0.00000000       0.00000000       0.00000000 </v>
   <v>       0.10000000       0.20000000       0.80000000 </v>
   <v>       0.03333333       0.06666667       0.60000000 </v>
   <v>       0.90000000       0.80000000       0.20000000 </v>
   <v>       0.80000000       0.60000000       0.40000000 </v>
   <v>       0.73333333       0.46666667       0.20000000 </v>
   <v>       0.66666667       0.33333333       0.00000000 </v>
   <v>       0.36666667       0.73333333       0.60000000 </v>
   <v>       0.13333333       0.26666667       0.40000000 </v>
   <v>       0.83333333       0.66666667       0.00000000 </v>
   <v>       0.93333333       0.86666667       0.80000000 </v>
   <v>       0.56666667       0.13333333       0.20000000 </v>
   <v>       0.40000000       0.80000000       0.20000000 </v>
   <v>       0.43333333       0.86666667       0.80000000 </v>
   <v>       0.30000000       0.60000000       0.40000000 </v>
   <v>       0.86666667       0.73333333       0.60000000 </v>
   <v>       0.46666667       0.93333333       0.40000000 </v>
   <v>       0.16666667       0.33333333       0.00000000 </v>
   <v>       0.26666667       0.53333333       0.80000000 </v>
   <v>       0.20000000       0.40000000       0.60000000 </v>
   <v>       0.06666667       0.13333333       0.20000000 </v>
   <v>       0.70000000       0.40000000       0.60000000 </v>
   <v>       0.60000000       0.20000000       0.80000000 </v>
   <v>       0.53333333       0.06666667       0.60000000 </v>
   <v>       0.33333333       0.66666667       0.00000000 </v>
   <v>       0.23333333       0.46666667       0.20000000 </v>
  </varray>
 </structure>
 <calculation>
  <scstep>
   <time name="dav">   43.61   43.68</time>
   <time name="total">   43.74   43.81</time>
   <energy>
    <i name="alphaZ">   1173.71499705 </i>
    <i name="ewald"> -10972.14852105 </i>
    <i name="hartreedc">   -105.86205528 </i>
    <i name="XCdc">   -935.89236739 </i>
    <i name="pawpsdc"> 577070.66699620 </i>
    <i name="pawaedc">-575809.80944813 </i>
    <i name="eentropy">      0.00167311 </i>
    <i name="bandstr">  -7608.31315210 </i>
    <i name="atom">  12835.31476492 </i>
    <i name="e_fr_energy">  -4352.32711269 </i>
    <i name="e_wo_entrp">  -4352.32878580 </i>
    <i name="e_0_energy">  -4352.32767039 </i>
   </energy>
  </scstep>
  <scstep>
   <time name="dav">   48.33   48.41</time>
   <time name="total">   48.33   48.41</time>
   <energy>
    <i name="e_fr_energy">  -9762.37414385 </i>
    <i name="e_wo_entrp">  -9762.37329950 </i>
    <i name="e_0_energy">  -9762.37386240 </i>
   </energy>
  </scstep>
  <scstep>
   <time name="dav">   56.11   56.20</time>
   <time name="total">   56.12   56.21</time>
   <energy>
    <i name="e_fr_energy"> -10622.38121657 </i>
    <i name="e_wo_entrp"> -10622.37803554 </i>
    <i name="e_0_energy"> -10622.38015623 </i>
   </energy>
  </scstep>
  <scstep>
   <time name="dav">   56.17   56.27</time>
   <time name="total">   56.18   56.27</time>
   <energy>
    <i name="e_fr_energy"> -10863.38499523 </i>
    <i name="e_wo_entrp"> -10863.38550774 </i>
    <i name="e_0_energy"> -10863.38516607 </i>
   </energy>
  </scstep>
  <scstep>
   <time name="dav">   56.18   56.27</time>
   <time name="total">   56.86   56.95</time>
   <energy>
    <i name="e_fr_energy"> -11036.72498412 </i>
    <i name="e_wo_entrp"> -11036.72342367 </i>
    <i name="e_0_energy"> -11036.72446397 </i>
   </energy>
  </scstep>
  <scstep>
   <time name="dav">   46.72   46.79</time>
   <time name="total">   47.46   47.54</time>
   <energy>
    <i name="e_fr_energy">  -1193.51479495 </i>
    <i name="e_wo_entrp">  -1193.51641966 </i>
    <i name="e_0_energy">  -1193.51533652 </i>
   </energy>
  </scstep>
  <scstep>
   <time name="dav">   48.75   48.83</time>
   <time name="total">   49.44   49.52</time>
   <energy>
    <i name="e_fr_energy">   -997.42318305 </i>
    <i name="e_wo_entrp">   -997.42591927 </i>
    <i name="e_0_energy">   -997.42409513 </i>
   </energy>
  </scstep>
  <scstep>
   <time name="dav">   50.33   50.40</time>
   <time name="total">   51.01   51.10</time>
   <energy>
    <i name="e_fr_energy">   -788.50651661 </i>
    <i name="e_wo_entrp">   -788.50677863 </i>
    <i name="e_0_energy">   -788.50660395 </i>
   </energy>
  </scstep>
  <scstep>
   <time name="dav">   49.78   49.86</time>
   <time name="total">   50.46   50.54</time>
   <energy>
    <i name="e_fr_energy">   -704.79619567 </i>
    <i name="e_wo_entrp">   -704.80356184 </i>
    <i name="e_0_energy">   -704.79865106 </i>
   </energy>
  </scstep>
  <scstep>
   <time name="dav">   53.04   53.10</time>
   <time name="total">   53.72   53.80</time>
   <energy>
    <i name="e_fr_energy">   -693.32481195 </i>
    <i name="e_wo_entrp">   -693.33523672 </i>
    <i name="e_0_energy">   -693.32828687 </i>
   </energy>
  </scstep>
  <scstep>
   <time name="dav">   50.62   50.68</time>
   <time name="total">   51.30   51.36</time>
   <energy>
    <i name="e_fr_energy">   -621.40301334 </i>
    <i name="e_wo_entrp">   -621.40289066 </i>
    <i name="e_0_energy">   -621.40297245 </i>
   </energy>
  </scstep>
  <scstep>
   <time name="dav">   52.90   52.97</time>
   <time name="total">   53.60   53.68</time>
   <energy>
    <i name="e_fr_energy">   -547.24289170 </i>
    <i name="e_wo_entrp">   -547.25012422 </i>
    <i name="e_0_energy">   -547.24530254 </i>
   </energy>
  </scstep>
  <scstep>
   <time name="dav">   47.06   47.12</time>
   <time name="total">   47.75   47.81</time>
   <energy>
    <i name="e_fr_energy">   -513.87760271 </i>
    <i name="e_wo_entrp">   -513.87617953 </i>
    <i name="e_0_energy">   -513.87712832 </i>
   </energy>
  </scstep>
  <scstep>
   <time name="dav">   48.80   48.86</time>
   <time name="total">   49.48   49.55</time>
   <energy>
    <i name="e_fr_energy">   -372.43627908 </i>
    <i name="e_wo_entrp">   -372.43927026 </i>
    <i name="e_0_energy">   -372.43727614 </i>
   </energy>
  </scstep>
  <scstep>
   <time name="dav">   51.56   51.63</time>
   <time name="total">   52.23   52.31</time>
   <energy>
    <i name="e_fr_energy">   -435.06367474 </i>
    <i name="e_wo_entrp">   -435.06295959 </i>
    <i name="e_0_energy">   -435.06343635 </i>
   </energy>
  </scstep>
  <scstep>
   <time name="dav">   53.12   53.19</time>
   <time name="total">   53.80   53.88</time>
   <energy>
    <i name="e_fr_energy">   -380.10089254 </i>
    <i name="e_wo_entrp">   -380.10131565 </i>
    <i name="e_0_energy">   -380.10103358 </i>
   </energy>
  </scstep>
  <scstep>
   <time name="dav">   51.90   51.97</time>
   <time name="total">   52.57   52.64</time>
   <energy>
    <i name="e_fr_energy">   -372.90728217 </i>
    <i name="e_wo_entrp">   -372.91031516 </i>
    <i name="e_0_energy">   -372.90829317 </i>
   </energy>
  </scstep>
  <scstep>
   <time name="dav">   51.47   51.53</time>
   <time name="total">   52.14   52.21</time>
   <energy>
    <i name="e_fr_energy">   -352.74253284 </i>
    <i name="e_wo_entrp">   -352.73230768 </i>
    <i name="e_0_energy">   -352.73912445 </i>
   </energy>
  </scstep>
  <scstep>
   <time name="dav">   51.48   51.54</time>
   <time name="total">   52.14   52.21</time>
   <energy>
    <i name="e_fr_energy">   -333.01862946 </i>
    <i name="e_wo_entrp">   -333.01022222 </i>
    <i name="e_0_energy">   -333.01582704 </i>
   </energy>
  </scstep>
  <scstep>
   <time name="dav">   52.14   52.20</time>
   <time name="total">   52.81   52.88</time>
   <energy>
    <i name="e_fr_energy">   -319.51337176 </i>
    <i name="e_wo_entrp">   -319.51281770 </i>
    <i name="e_0_energy">   -319.51318707 </i>
   </energy>
  </scstep>
  <scstep>
   <time name="dav">   51.65   51.72</time>
   <time name="total">   52.31   52.39</time>
   <energy>
    <i name="e_fr_energy">   -335.27474114 </i>
    <i name="e_wo_entrp">   -335.26511219 </i>
    <i name="e_0_energy">   -335.27153149 </i>
   </energy>
  </scstep>
  <scstep>
   <time name="dav">   54.75   54.82</time>
   <time name="total">   55.42   55.50</time>
   <energy>
    <i name="e_fr_energy">   -318.36838152 </i>
    <i name="e_wo_entrp">   -318.34844835 </i>
    <i name="e_0_energy">   -318.36173713 </i>
   </energy>
  </scstep>
  <scstep>
   <time name="dav">   48.34   48.41</time>
   <time name="total">   49.01   49.07</time>
   <energy>
    <i name="e_fr_energy">   -314.26719162 </i>
    <i name="e_wo_entrp">   -314.24637077 </i>
    <i name="e_0_energy">   -314.26025134 </i>
   </energy>
  </scstep>
  <scstep>
   <time name="dav">   45.45   45.51</time>
   <time name="total">   46.12   46.19</time>
   <energy>
    <i name="e_fr_energy">   -313.52765923 </i>
    <i name="e_wo_entrp">   -313.50258189 </i>
    <i name="e_0_energy">   -313.51930012 </i>
   </energy>
  </scstep>
  <scstep>
   <time name="dav">   47.92   47.99</time>
   <time name="total">   48.58   48.65</time>
   <energy>
    <i name="e_fr_energy">   -314.37374359 </i>
    <i name="e_wo_entrp">   -314.34458142 </i>
    <i name="e_0_energy">   -314.36402287 </i>
   </energy>
  </scstep>
  <scstep>
   <time name="dav">   48.62   48.69</time>
   <time name="total">   49.31   49.38</time>
   <energy>
    <i name="e_fr_energy">   -309.59972267 </i>
    <i name="e_wo_entrp">   -309.57476439 </i>
    <i name="e_0_energy">   -309.59140324 </i>
   </energy>
  </scstep>
  <scstep>
   <time name="dav">   46.24   46.30</time>
   <time name="total">   46.90   46.96</time>
   <energy>
    <i name="e_fr_energy">   -308.65428313 </i>
    <i name="e_wo_entrp">   -308.64050038 </i>
    <i name="e_0_energy">   -308.64968888 </i>
   </energy>
  </scstep>
  <scstep>
   <time name="dav">   45.96   46.02</time>
   <time name="total">   46.63   46.70</time>
   <energy>
    <i name="e_fr_energy">   -307.59634702 </i>
    <i name="e_wo_entrp">   -307.57888074 </i>
    <i name="e_0_energy">   -307.59052493 </i>
   </energy>
  </scstep>
  <scstep>
   <time name="dav">   49.00   49.06</time>
   <time name="total">   49.66   49.72</time>
   <energy>
    <i name="e_fr_energy">   -307.05475846 </i>
    <i name="e_wo_entrp">   -307.03321811 </i>
    <i name="e_0_energy">   -307.04757834 </i>
   </energy>
  </scstep>
  <scstep>
   <time name="dav">   51.88   51.94</time>
   <time name="total">   52.55   52.63</time>
   <energy>
    <i name="e_fr_energy">   -306.84871203 </i>
    <i name="e_wo_entrp">   -306.82527801 </i>
    <i name="e_0_energy">   -306.84090069 </i>
   </energy>
  </scstep>
  <scstep>
   <time name="dav">   48.74   48.80</time>
   <time name="total">   49.40   49.47</time>
   <energy>
    <i name="e_fr_energy">   -306.83875266 </i>
    <i name="e_wo_entrp">   -306.81460760 </i>
    <i name="e_0_energy">   -306.83070430 </i>
   </energy>
  </scstep>
  <scstep>
   <time name="dav">   48.01   48.07</time>
   <time name="total">   48.69   48.76</time>
   <energy>
    <i name="e_fr_energy">   -306.55188914 </i>
    <i name="e_wo_entrp">   -306.52725434 </i>
    <i name="e_0_energy">   -306.54367754 </i>
   </energy>
  </scstep>
  <scstep>
   <time name="dav">   50.39   50.45</time>
   <time name="total">   51.06   51.13</time>
   <energy>
    <i name="e_fr_energy">   -306.48601711 </i>
    <i name="e_wo_entrp">   -306.46149314 </i>
    <i name="e_0_energy">   -306.47784245 </i>
   </energy>
  </scstep>
  <scstep>
   <time name="dav">   51.12   51.18</time>
   <time name="total">   51.80   51.88</time>
   <energy>
    <i name="e_fr_energy">   -306.50048836 </i>
    <i name="e_wo_entrp">   -306.47744202 </i>
    <i name="e_0_energy">   -306.49280625 </i>
   </energy>
  </scstep>
  <scstep>
   <time name="dav">   49.90   49.96</time>
   <time name="total">   50.57   50.64</time>
   <energy>
    <i name="e_fr_energy">   -306.50935775 </i>
    <i name="e_wo_entrp">   -306.48552435 </i>
    <i name="e_0_energy">   -306.50141328 </i>
   </energy>
  </scstep>
  <scstep>
   <time name="dav">   48.81   48.87</time>
   <time name="total">   49.49   49.58</time>
   <energy>
    <i name="e_fr_energy">   -306.53228051 </i>
    <i name="e_wo_entrp">   -306.50883918 </i>
    <i name="e_0_energy">   -306.52446673 </i>
   </energy>
  </scstep>
  <scstep>
   <time name="dav">   49.41   49.47</time>
   <time name="total">   50.08   50.14</time>
   <energy>
    <i name="e_fr_energy">   -306.46965703 </i>
    <i name="e_wo_entrp">   -306.44593020 </i>
    <i name="e_0_energy">   -306.46174809 </i>
   </energy>
  </scstep>
  <scstep>
   <time name="dav">   49.00   49.07</time>
   <time name="total">   49.68   49.77</time>
   <energy>
    <i name="e_fr_energy">   -306.44364485 </i>
    <i name="e_wo_entrp">   -306.41932476 </i>
    <i name="e_0_energy">   -306.43553815 </i>
   </energy>
  </scstep>
  <scstep>
   <time name="dav">   44.82   44.89</time>
   <time name="total">   45.48   45.57</time>
   <energy>
    <i name="e_fr_energy">   -306.42496257 </i>
    <i name="e_wo_entrp">   -306.40118490 </i>
    <i name="e_0_energy">   -306.41703668 </i>
   </energy>
  </scstep>
  <scstep>
   <time name="dav">   48.22   48.57</time>
   <time name="total">   48.87   49.28</time>
   <energy>
    <i name="e_fr_energy">   -306.42534462 </i>
    <i name="e_wo_entrp">   -306.40087894 </i>
    <i name="e_0_energy">   -306.41718939 </i>
   </energy>
  </scstep>
  <scstep>
   <time name="dav">   48.98   49.05</time>
   <time name="total">   49.66   49.72</time>
   <energy>
    <i name="e_fr_energy">   -306.40853723 </i>
    <i name="e_wo_entrp">   -306.38435228 </i>
    <i name="e_0_energy">   -306.40047558 </i>
   </energy>
  </scstep>
  <scstep>
   <time name="dav">   49.26   49.32</time>
   <time name="total">   49.94   50.01</time>
   <energy>
    <i name="e_fr_energy">   -306.40666515 </i>
    <i name="e_wo_entrp">   -306.38242578 </i>
    <i name="e_0_energy">   -306.39858536 </i>
   </energy>
  </scstep>
  <scstep>
   <time name="dav">   47.64   47.70</time>
   <time name="total">   48.31   48.37</time>
   <energy>
    <i name="e_fr_energy">   -306.40660876 </i>
    <i name="e_wo_entrp">   -306.38229940 </i>
    <i name="e_0_energy">   -306.39850564 </i>
   </energy>
  </scstep>
  <scstep>
   <time name="dav">   44.94   44.99</time>
   <time name="total">   45.63   45.71</time>
   <energy>
    <i name="e_fr_energy">   -306.40605928 </i>
    <i name="e_wo_entrp">   -306.38170045 </i>
    <i name="e_0_energy">   -306.39793967 </i>
   </energy>
  </scstep>
  <scstep>
   <time name="dav">   35.22   35.26</time>
   <time name="total">   35.29   35.33</time>
   <energy>
    <i name="alphaZ">   1173.71499705 </i>
    <i name="ewald"> -10972.14852105 </i>
    <i name="hartreedc">  -3200.54716787 </i>
    <i name="XCdc">   -843.02076247 </i>
    <i name="pawpsdc">  18863.05794507 </i>
    <i name="pawaedc"> -17401.27594290 </i>
    <i name="eentropy">     -0.02429009 </i>
    <i name="bandstr">   -761.47704043 </i>
    <i name="atom">  12835.31476492 </i>
    <i name="e_fr_energy">   -306.40601779 </i>
    <i name="e_wo_entrp">   -306.38172769 </i>
    <i name="e_0_energy">   -306.39792109 </i>
   </energy>
  </scstep>
  <structure>
   <crystal>
    <varray name="basis" >
     <v>      -3.16000000      -3.16000000      -3.16000000 </v>
     <v>       1.58000000       1.58000000      -7.90000000 </v>
     <v>       7.90000000      -7.90000000      -1.58000000 </v>
    </varray>
    <i name="volume">    473.31744000 </i>
    <varray name="rec_basis" >
     <v>      -0.13713080      -0.12658228      -0.05274262 </v>
     <v>       0.04219409       0.06329114      -0.10548523 </v>
     <v>       0.06329114      -0.06329114       0.00000000 </v>
    </varray>
   </crystal>
   <varray name="positions" >
    <v>       0.96666667       0.93333333       0.40000000 </v>
    <v>       0.63333333       0.26666667       0.40000000 </v>
    <v>       0.50000000       0.00000000       0.00000000 </v>
    <v>       0.00000000       0.00000000       0.00000000 </v>
    <v>       0.10000000       0.20000000       0.80000000 </v>
    <v>       0.03333333       0.06666667       0.60000000 </v>
    <v>       0.90000000       0.80000000       0.20000000 </v>
    <v>       0.80000000       0.60000000       0.40000000 </v>
    <v>       0.73333333       0.46666667       0.20000000 </v>
    <v>       0.66666667       0.33333333       0.00000000 </v>
    <v>       0.36666667       0.73333333       0.60000000 </v>
    <v>       0.13333333       0.26666667       0.40000000 </v>
    <v>       0.83333333       0.66666667       0.00000000 </v>
    <v>       0.93333333       0.86666667       0.80000000 </v>
    <v>       0.56666667       0.13333333       0.20000000 </v>
    <v>       0.40000000       0.80000000       0.20000000 </v>
    <v>       0.43333333       0.86666667       0.80000000 </v>
    <v>       0.30000000       0.60000000       0.40000000 </v>
    <v>       0.86666667       0.73333333       0.60000000 </v>
    <v>       0.46666667       0.93333333       0.40000000 </v>
    <v>       0.16666667       0.33333333       0.00000000 </v>
    <v>       0.26666667       0.53333333       0.80000000 </v>
    <v>       0.20000000       0.40000000       0.60000000 </v>
    <v>       0.06666667       0.13333333       0.20000000 </v>
    <v>       0.70000000       0.40000000       0.60000000 </v>
    <v>       0.60000000       0.20000000       0.80000000 </v>
    <v>       0.53333333       0.06666667       0.60000000 </v>
    <v>       0.33333333       0.66666667       0.00000000 </v>
    <v>       0.23333333       0.46666667       0.20000000 </v>
   </varray>
  </structure>
  <varray name="forces" >
   <v>       0.04675456       0.56363011       0.24728636 </v>
   <v>       0.31654563      -0.16351235      -0.05324874 </v>
   <v>      -0.19795596       0.47409832      -0.19179078 </v>
   <v>       0.12328535       0.07001676      -0.04251280 </v>
   <v>       0.24562225       0.86232282      -0.88772578 </v>
   <v>      -0.05381746       0.10027301      -0.42294030 </v>
   <v>       0.05340048      -0.60055448       0.19104615 </v>
   <v>      -0.37084619      -0.40568929       0.57378900 </v>
   <v>      -0.22814554       0.36291458       0.01717148 </v>
   <v>       0.20835412       0.58759767      -0.50108089 </v>
   <v>      -0.02752556      -0.03390879       0.41178518 </v>
   <v>       0.21072522       0.17521865      -0.61065659 </v>
   <v>      -0.08487707      -0.30479316       0.65846909 </v>
   <v>       0.02725967       0.15567731      -0.84248904 </v>
   <v>      -0.09736305       0.40519508      -0.09683156 </v>
   <v>      -0.79079798      -0.10665909       0.78122272 </v>
   <v>      -0.96881989      -0.18747931       0.93734428 </v>
   <v>       0.41487160      -0.44794275      -0.12346976 </v>
   <v>       0.15974995       0.25051429       0.47704419 </v>
   <v>       0.49796694      -0.58476808       0.06193434 </v>
   <v>      -0.13360311      -0.85649293      -0.47222674 </v>
   <v>      -0.40066424      -0.30716469      -0.36943181 </v>
   <v>      -0.93043553      -0.17438308       0.43731197 </v>
   <v>       0.64245462      -0.06130045      -0.82312598 </v>
   <v>       0.38673405       0.38495456      -0.08356174 </v>
   <v>       0.16185538       0.30329157       0.50080349 </v>
   <v>       0.32159438      -0.54347618      -0.36128211 </v>
   <v>       0.34375704      -0.24075781       0.76199006 </v>
   <v>       0.12392036       0.32317772      -0.17482368 </v>
  </varray>
  <varray name="stress" >
   <v>      -3.69853057      -7.34877588      -0.35176286 </v>
   <v>      -7.34877582      -8.49146135      -2.32644691 </v>
   <v>      -0.35176280      -2.32644691      -5.97185967 </v>
  </varray>
  <energy>
   <i name="e_fr_energy">   -306.40601779 </i>
   <i name="e_wo_entrp">   -306.39792109 </i>
   <i name="e_0_energy">     -0.02429009 </i>
  </energy>
  <time name="totalsc"> 2271.79 2275.52</time>
 </calculation>
 <calculation>
  <scstep>
   <time name="dav">   32.91   32.96</time>
   <time name="total">   33.59   33.71</time>
   <energy>
    <i name="alphaZ">   1184.27249189 </i>
    <i name="ewald"> -11053.05565659 </i>
    <i name="hartreedc">  -3164.63396735 </i>
    <i name="XCdc">   -842.01138333 </i>
    <i name="pawpsdc">  18859.15170189 </i>
    <i name="pawaedc"> -17397.36000853 </i>
    <i name="eentropy">     -0.01970601 </i>
    <i name="bandstr">   -728.40436801 </i>
    <i name="atom">  12835.31476492 </i>
    <i name="e_fr_energy">   -306.74613112 </i>
    <i name="e_wo_entrp">   -306.72642511 </i>
    <i name="e_0_energy">   -306.73956245 </i>
   </energy>
  </scstep>
  <scstep>
   <time name="dav">   48.67   48.74</time>
   <time name="total">   49.34   49.40</time>
   <energy>
    <i name="e_fr_energy">   -308.12438300 </i>
    <i name="e_wo_entrp">   -308.11989616 </i>
    <i name="e_0_energy">   -308.12288739 </i>
   </energy>
  </scstep>
  <scstep>
   <time name="dav">   48.62   48.69</time>
   <time name="total">   49.30   49.37</time>
   <energy>
    <i name="e_fr_energy">   -307.17901008 </i>
    <i name="e_wo_entrp">   -307.15963839 </i>
    <i name="e_0_energy">   -307.17255285 </i>
   </energy>
  </scstep>
  <scstep>
   <time name="dav">   50.18   50.24</time>
   <time name="total">   50.85   50.91</time>
   <energy>
    <i name="e_fr_energy">   -307.14899410 </i>
    <i name="e_wo_entrp">   -307.13057157 </i>
    <i name="e_0_energy">   -307.14285326 </i>
   </energy>
  </scstep>
  <scstep>
   <time name="dav">   48.61   48.67</time>
   <time name="total">   49.28   49.36</time>
   <energy>
    <i name="e_fr_energy">   -307.10559336 </i>
    <i name="e_wo_entrp">   -307.08569469 </i>
    <i name="e_0_energy">   -307.09896047 </i>
   </energy>
  </scstep>
  <scstep>
   <time name="dav">   47.20   47.26</time>
   <time name="total">   47.87   47.94</time>
   <energy>
    <i name="e_fr_energy">   -307.07493453 </i>
    <i name="e_wo_entrp">   -307.05732190 </i>
    <i name="e_0_energy">   -307.06906366 </i>
   </energy>
  </scstep>
  <scstep>
   <time name="dav">   50.96   51.02</time>
   <time name="total">   51.64   51.72</time>
   <energy>
    <i name="e_fr_energy">   -307.08390526 </i>
    <i name="e_wo_entrp">   -307.06297012 </i>
    <i name="e_0_energy">   -307.07692688 </i>
   </energy>
  </scstep>
  <scstep>
   <time name="dav">   49.00   49.06</time>
   <time name="total">   49.67   49.73</time>
   <energy>
    <i name="e_fr_energy">   -307.07526526 </i>
    <i name="e_wo_entrp">   -307.05446320 </i>
    <i name="e_0_energy">   -307.06833124 </i>
   </energy>
  </scstep>
  <scstep>
   <time name="dav">   51.37   51.44</time>
   <time name="total">   52.06   52.13</time>
   <energy>
    <i name="e_fr_energy">   -307.06246153 </i>
    <i name="e_wo_entrp">   -307.04274403 </i>
    <i name="e_0_energy">   -307.05588903 </i>
   </energy>
  </scstep>
  <scstep>
   <time name="dav">   49.13   49.19</time>
   <time name="total">   49.79   49.86</time>
   <energy>
    <i name="e_fr_energy">   -307.05985078 </i>
    <i name="e_wo_entrp">   -307.04007307 </i>
    <i name="e_0_energy">   -307.05325821 </i>
   </energy>
  </scstep>
  <scstep>
   <time name="dav">   44.23   44.29</time>
   <time name="total">   44.91   44.98</time>
   <energy>
    <i name="e_fr_energy">   -307.05958589 </i>
    <i name="e_wo_entrp">   -307.03984240 </i>
    <i name="e_0_energy">   -307.05300473 </i>
   </energy>
  </scstep>
  <scstep>
   <time name="dav">   46.76   46.82</time>
   <time name="total">   47.44   47.51</time>
   <energy>
    <i name="e_fr_energy">   -307.05961244 </i>
    <i name="e_wo_entrp">   -307.03979181 </i>
    <i name="e_0_energy">   -307.05300556 </i>
   </energy>
  </scstep>
  <scstep>
   <time name="dav">   47.85   47.91</time>
   <time name="total">   48.52   48.60</time>
   <energy>
    <i name="e_fr_energy">   -307.05966307 </i>
    <i name="e_wo_entrp">   -307.03998752 </i>
    <i name="e_0_energy">   -307.05310455 </i>
   </energy>
  </scstep>
  <scstep>
   <time name="dav">   44.52   44.58</time>
   <time name="total">   45.18   45.24</time>
   <energy>
    <i name="e_fr_energy">   -307.05965999 </i>
    <i name="e_wo_entrp">   -307.03972863 </i>
    <i name="e_0_energy">   -307.05301620 </i>
   </energy>
  </scstep>
  <scstep>
   <time name="dav">   41.24   41.30</time>
   <time name="total">   41.91   41.98</time>
   <energy>
    <i name="e_fr_energy">   -307.05953639 </i>
    <i name="e_wo_entrp">   -307.03981867 </i>
    <i name="e_0_energy">   -307.05296382 </i>
   </energy>
  </scstep>
  <scstep>
   <time name="dav">   37.00   37.05</time>
   <time name="total">   37.07   37.12</time>
   <energy>
    <i name="alphaZ">   1184.27249189 </i>
    <i name="ewald"> -11053.05565659 </i>
    <i name="hartreedc">  -3145.63352597 </i>
    <i name="XCdc">   -842.52248236 </i>
    <i name="pawpsdc">  18982.22323649 </i>
    <i name="pawaedc"> -17521.18782230 </i>
    <i name="eentropy">     -0.01981705 </i>
    <i name="bandstr">   -746.45062904 </i>
    <i name="atom">  12835.31476492 </i>
    <i name="e_fr_energy">   -307.05944000 </i>
    <i name="e_wo_entrp">   -307.03962295 </i>
    <i name="e_0_energy">   -307.05283432 </i>
   </energy>
  </scstep>
  <structure>
   <crystal>
    <varray name="basis" >
     <v>      -3.14229762      -3.13178774      -3.14656673 </v>
     <v>       1.57278764       1.57673256      -7.87889433 </v>
     <v>       7.91444491      -7.89375717      -1.56769640 </v>
    </varray>
    <i name="volume">    469.09793269 </i>
    <varray name="rec_basis" >
     <v>      -0.13785163      -0.12767360      -0.05306817 </v>
     <v>       0.04248269       0.06358906      -0.10571544 </v>
     <v>       0.06317725      -0.06332731      -0.00006166 </v>
    </varray>
   </crystal>
   <varray name="positions" >
    <v>       0.96228626       0.93389104       0.39842181 </v>
    <v>       0.63237321       0.26708274       0.40146578 </v>
    <v>       0.49890243       0.00202063      -0.00205201 </v>
    <v>      -0.00113500       0.00068108       0.00016265 </v>
    <v>       0.09536792       0.20765047       0.79811701 </v>
    <v>       0.03415318       0.06901558       0.59952951 </v>
    <v>       0.90282801       0.79730279       0.20199674 </v>
    <v>       0.80347079       0.59508647       0.40010639 </v>
    <v>       0.73258275       0.46722298       0.19819530 </v>
    <v>       0.66297500       0.33810152      -0.00115796 </v>
    <v>       0.36600807       0.73107824       0.60001949 </v>
    <v>       0.13242305       0.27073818       0.40010841 </v>
    <v>       0.83408067       0.66221239       0.00067148 </v>
    <v>       0.93434599       0.87148483       0.79960790 </v>
    <v>       0.56508277       0.13486510       0.19846552 </v>
    <v>       0.40389512       0.79408907       0.19791110 </v>
    <v>       0.43850246       0.85935211       0.79761431 </v>
    <v>       0.30030499       0.60010510       0.40263446 </v>
    <v>       0.86286622       0.73199579       0.59972287 </v>
    <v>       0.46678574       0.93224630       0.40330595 </v>
    <v>       0.17398240       0.33284932       0.00220722 </v>
    <v>       0.27213304       0.53345988       0.79971451 </v>
    <v>       0.20610753       0.39534817       0.59769152 </v>
    <v>       0.06488522       0.13864271       0.20214880 </v>
    <v>       0.69530337       0.40238785       0.60000543 </v>
    <v>       0.59580287       0.19870698       0.79956815 </v>
    <v>       0.53544389       0.06750040       0.60264135 </v>
    <v>       0.33059057       0.66275361       0.00178472 </v>
    <v>       0.23098482       0.46879534       0.19939160 </v>
   </varray>
  </structure>
  <varray name="forces" >
   <v>       0.09034298       0.27865087       0.07951411 </v>
   <v>       0.11104840      -0.02938288       0.01106866 </v>
   <v>      -0.27657125       0.22154694       0.13160262 </v>
   <v>       0.10412085       0.06206603      -0.17276084 </v>
   <v>       0.27310293       0.65241467      -0.58872383 </v>
   <v>      -0.06057464       0.07677400      -0.28065922 </v>
   <v>      -0.04022593      -0.19500130       0.14815892 </v>
   <v>      -0.14108244      -0.21385539       0.23907573 </v>
   <v>      -0.07066637       0.09871778       0.12435186 </v>
   <v>       0.04861516       0.53728625      -0.39248565 </v>
   <v>      -0.05027522      -0.05754801       0.27725017 </v>
   <v>       0.14273271       0.09242119      -0.22178791 </v>
   <v>      -0.14338370       0.05066686       0.30851313 </v>
   <v>       0.07435831       0.08243578      -0.36199599 </v>
   <v>      -0.00916597       0.16995930       0.00226334 </v>
   <v>      -0.33926881      -0.08876154       0.25258100 </v>
   <v>      -0.57122422      -0.25593116       0.53054766 </v>
   <v>       0.15094057      -0.27292259      -0.12720249 </v>
   <v>       0.19568332       0.09854300       0.39306328 </v>
   <v>       0.28370549      -0.32948711       0.11108775 </v>
   <v>      -0.16268010      -0.61197267      -0.43238237 </v>
   <v>      -0.36095697      -0.27502419      -0.28243949 </v>
   <v>      -0.58197163      -0.12491434       0.30854372 </v>
   <v>       0.41549704      -0.04025573      -0.47483819 </v>
   <v>       0.34177133       0.14428279      -0.14091595 </v>
   <v>       0.09701862       0.32296134       0.31620044 </v>
   <v>       0.27112487      -0.48235152      -0.23104149 </v>
   <v>       0.12623348      -0.13259245       0.63522942 </v>
   <v>       0.08175120       0.22127410      -0.16181840 </v>
  </varray>
  <varray name="stress" >
   <v>       9.48596986      -5.06347511       1.40782815 </v>
   <v>      -5.06347512       6.61335407      -0.07472583 </v>
   <v>       1.40782807      -0.07472586       8.57639598 </v>
  </varray>
  <energy>
   <i name="e_fr_energy">   -307.05944000 </i>
   <i name="e_wo_entrp">   -307.05283432 </i>
   <i name="e_0_energy">     -0.01981705 </i>
  </energy>
  <time name="totalsc">  768.58  769.86</time>
 </calculation>
 <calculation>
  <scstep>
   <time name="dav">   33.59   33.64</time>
   <time name="total">   34.25   34.30</time>
   <energy>
    <i name="alphaZ">   1197.99794392 </i>
    <i name="ewald"> -11147.31445158 </i>
    <i name="hartreedc">  -3107.02538637 </i>
    <i name="XCdc">   -841.22449889 </i>
    <i name="pawpsdc">  18982.14182779 </i>
    <i name="pawaedc"> -17521.09334011 </i>
    <i name="eentropy">     -0.01512420 </i>
    <i name="bandstr">   -705.65700262 </i>
    <i name="atom">  12835.31476492 </i>
    <i name="e_fr_energy">   -306.87526714 </i>
    <i name="e_wo_entrp">   -306.86014293 </i>
    <i name="e_0_energy">   -306.87022574 </i>
   </energy>
  </scstep>
  <scstep>
   <time name="dav">   48.92   49.20</time>
   <time name="total">   49.55   49.88</time>
   <energy>
    <i name="e_fr_energy">   -309.00139707 </i>
    <i name="e_wo_entrp">   -309.00786176 </i>
    <i name="e_0_energy">   -309.00355196 </i>
   </energy>
  </scstep>
  <scstep>
   <time name="dav">   49.04   49.10</time>
   <time name="total">   49.72   49.80</time>
   <energy>
    <i name="e_fr_energy">   -307.50400374 </i>
    <i name="e_wo_entrp">   -307.49109805 </i>
    <i name="e_0_energy">   -307.49970184 </i>
   </energy>
  </scstep>
  <scstep>
   <time name="dav">   50.94   51.01</time>
   <time name="total">   51.62   51.69</time>
   <energy>
    <i name="e_fr_energy">   -307.45393363 </i>
    <i name="e_wo_entrp">   -307.44152873 </i>
    <i name="e_0_energy">   -307.44979866 </i>
   </energy>
  </scstep>
  <scstep>
   <time name="dav">   48.53   48.59</time>
   <time name="total">   49.21   49.30</time>
   <energy>
    <i name="e_fr_energy">   -307.40029753 </i>
    <i name="e_wo_entrp">   -307.38666377 </i>
    <i name="e_0_energy">   -307.39575294 </i>
   </energy>
  </scstep>
  <scstep>
   <time name="dav">   47.58   47.64</time>
   <time name="total">   48.25   48.31</time>
   <energy>
    <i name="e_fr_energy">   -307.34838201 </i>
    <i name="e_wo_entrp">   -307.33660263 </i>
    <i name="e_0_energy">   -307.34445555 </i>
   </energy>
  </scstep>
  <scstep>
   <time name="dav">   49.34   49.41</time>
   <time name="total">   50.04   50.12</time>
   <energy>
    <i name="e_fr_energy">   -307.37178497 </i>
    <i name="e_wo_entrp">   -307.35692884 </i>
    <i name="e_0_energy">   -307.36683293 </i>
   </energy>
  </scstep>
  <scstep>
   <time name="dav">   49.24   49.30</time>
   <time name="total">   49.91   49.98</time>
   <energy>
    <i name="e_fr_energy">   -307.34527029 </i>
    <i name="e_wo_entrp">   -307.33028411 </i>
    <i name="e_0_energy">   -307.34027489 </i>
   </energy>
  </scstep>
  <scstep>
   <time name="dav">   50.32   50.39</time>
   <time name="total">   50.99   51.10</time>
   <energy>
    <i name="e_fr_energy">   -307.33003358 </i>
    <i name="e_wo_entrp">   -307.31612852 </i>
    <i name="e_0_energy">   -307.32539856 </i>
   </energy>
  </scstep>
  <scstep>
   <time name="dav">   49.71   49.79</time>
   <time name="total">   50.37   50.45</time>
   <energy>
    <i name="e_fr_energy">   -307.32737518 </i>
    <i name="e_wo_entrp">   -307.31341088 </i>
    <i name="e_0_energy">   -307.32272042 </i>
   </energy>
  </scstep>
  <scstep>
   <time name="dav">   46.15   46.28</time>
   <time name="total">   46.78   46.96</time>
   <energy>
    <i name="e_fr_energy">   -307.32709294 </i>
    <i name="e_wo_entrp">   -307.31322437 </i>
    <i name="e_0_energy">   -307.32247008 </i>
   </energy>
  </scstep>
  <scstep>
   <time name="dav">   48.43   48.49</time>
   <time name="total">   49.08   49.15</time>
   <energy>
    <i name="e_fr_energy">   -307.32714746 </i>
    <i name="e_wo_entrp">   -307.31312644 </i>
    <i name="e_0_energy">   -307.32247379 </i>
   </energy>
  </scstep>
  <scstep>
   <time name="dav">   46.50   46.56</time>
   <time name="total">   47.18   47.25</time>
   <energy>
    <i name="e_fr_energy">   -307.32731281 </i>
    <i name="e_wo_entrp">   -307.31352251 </i>
    <i name="e_0_energy">   -307.32271605 </i>
   </energy>
  </scstep>
  <scstep>
   <time name="dav">   45.19   45.25</time>
   <time name="total">   45.87   45.93</time>
   <energy>
    <i name="e_fr_energy">   -307.32728351 </i>
    <i name="e_wo_entrp">   -307.31308372 </i>
    <i name="e_0_energy">   -307.32255025 </i>
   </energy>
  </scstep>
  <scstep>
   <time name="dav">   41.67   41.73</time>
   <time name="total">   42.34   42.43</time>
   <energy>
    <i name="e_fr_energy">   -307.32700306 </i>
    <i name="e_wo_entrp">   -307.31309946 </i>
    <i name="e_0_energy">   -307.32236853 </i>
   </energy>
  </scstep>
  <scstep>
   <time name="dav">   37.37   37.43</time>
   <time name="total">   37.44   37.50</time>
   <energy>
    <i name="alphaZ">   1197.99794392 </i>
    <i name="ewald"> -11147.31445158 </i>
    <i name="hartreedc">  -3083.89803930 </i>
    <i name="XCdc">   -841.86987312 </i>
    <i name="pawpsdc">  19214.10888628 </i>
    <i name="pawaedc"> -17753.96667986 </i>
    <i name="eentropy">     -0.01398326 </i>
    <i name="bandstr">   -727.68549439 </i>
    <i name="atom">  12835.31476492 </i>
    <i name="e_fr_energy">   -307.32692639 </i>
    <i name="e_wo_entrp">   -307.31294313 </i>
    <i name="e_0_energy">   -307.32226531 </i>
   </energy>
  </scstep>
  <structure>
   <crystal>
    <varray name="basis" >
     <v>      -3.11968721      -3.09575355      -3.12940904 </v>
     <v>       1.56357563       1.57255920      -7.85193706 </v>
     <v>       7.93289472      -7.88578350      -1.55198160 </v>
    </varray>
    <i name="volume">    463.72348176 </i>
    <varray name="rec_basis" >
     <v>      -0.13878801      -0.12908975      -0.05349085 </v>
     <v>       0.04285591       0.06397556      -0.10601030 </v>
     <v>       0.06303076      -0.06337539      -0.00014114 </v>
    </varray>
   </crystal>
   <varray name="positions" >
    <v>       0.95664642       0.93461105       0.39640353 </v>
    <v>       0.63114490       0.26761754       0.40333629 </v>
    <v>       0.49748131       0.00460939      -0.00467187 </v>
    <v>      -0.00259401       0.00155508       0.00036953 </v>
    <v>       0.08940050       0.21745485       0.79571168 </v>
    <v>       0.03520446       0.07202262       0.59893034 </v>
    <v>       0.90647426       0.79384500       0.20454732 </v>
    <v>       0.80793610       0.58878847       0.40024360 </v>
    <v>       0.73160945       0.46793590       0.19589096 </v>
    <v>       0.65822109       0.34421331      -0.00263783 </v>
    <v>       0.36516212       0.72819096       0.60004309 </v>
    <v>       0.13125149       0.27595415       0.40024734 </v>
    <v>       0.83504627       0.65650670       0.00152790 </v>
    <v>       0.93564463       0.87765412       0.79910975 </v>
    <v>       0.56303875       0.13682864       0.19650576 </v>
    <v>       0.40889680       0.78651221       0.19524586 </v>
    <v>       0.44514159       0.84997559       0.79457083 </v>
    <v>       0.30070872       0.60024024       0.40599789 </v>
    <v>       0.85797857       0.73028808       0.59936540 </v>
    <v>       0.46695378       0.93085513       0.40752606 </v>
    <v>       0.18339944       0.33221973       0.00503105 </v>
    <v>       0.27916083       0.53361399       0.79935478 </v>
    <v>       0.21395267       0.38938065       0.59474826 </v>
    <v>       0.06260195       0.14544610       0.20489211 </v>
    <v>       0.68926320       0.40545287       0.60000912 </v>
    <v>       0.59040444       0.19705681       0.79901285 </v>
    <v>       0.53816913       0.06856616       0.60601535 </v>
    <v>       0.32707302       0.65774653       0.00405948 </v>
    <v>       0.22796145       0.47152482       0.19861360 </v>
   </varray>
  </structure>
  <varray name="forces" >
   <v>       0.16655954      -0.11783334      -0.12956052 </v>
   <v>      -0.19323417       0.13891893       0.06625481 </v>
   <v>      -0.37950308      -0.12021350       0.56865588 </v>
   <v>       0.14024020       0.02059015      -0.29684177 </v>
   <v>       0.36209170       0.41646556      -0.23473120 </v>
   <v>      -0.04414287       0.04245266      -0.07214318 </v>
   <v>      -0.16861406       0.35455771       0.09241115 </v>
   <v>       0.22483786       0.09486971      -0.27526546 </v>
   <v>       0.18725022      -0.37724238       0.28257854 </v>
   <v>      -0.18462420       0.38632162      -0.20763997 </v>
   <v>      -0.06414032      -0.05601511       0.08377937 </v>
   <v>      -0.01285327      -0.04855879       0.36659871 </v>
   <v>      -0.23736710       0.51706025      -0.20323825 </v>
   <v>       0.07490468      -0.04473310       0.21964134 </v>
   <v>       0.08140488      -0.15174085       0.07939886 </v>
   <v>       0.24928560       0.00313946      -0.44210359 </v>
   <v>      -0.11756951      -0.40828128      -0.02582495 </v>
   <v>      -0.22311884       0.03910684      -0.13972225 </v>
   <v>       0.19662969      -0.15183827       0.24593668 </v>
   <v>       0.02542519       0.01122646       0.16407173 </v>
   <v>      -0.16964340      -0.16804619      -0.24078114 </v>
   <v>      -0.27722325      -0.20910668      -0.10571186 </v>
   <v>      -0.04417495      -0.07177309       0.13688085 </v>
   <v>       0.10991419       0.02867967      -0.01601782 </v>
   <v>       0.25058754      -0.21617218      -0.22031469 </v>
   <v>       0.00576894       0.33638935       0.01468204 </v>
   <v>       0.16763277      -0.36832944       0.01688168 </v>
   <v>      -0.17128800       0.10062767       0.39891009 </v>
   <v>       0.04496403       0.01947817      -0.12678506 </v>
  </varray>
  <varray name="stress" >
   <v>      30.80048389      -1.15585434       2.91695210 </v>
   <v>      -1.15585420      31.44972805       2.33226599 </v>
   <v>       2.91695207       2.33226606      31.83463662 </v>
  </varray>
  <energy>
   <i name="e_fr_energy">   -307.32692639 </i>
   <i name="e_wo_entrp">   -307.32226531 </i>
   <i name="e_0_energy">     -0.01398326 </i>
  </energy>
  <time name="totalsc">  771.98  773.56</time>
 </calculation>
 <calculation>
  <scstep>
   <time name="dav">   40.84   40.90</time>
   <time name="total">   41.54   41.60</time>
   <energy>
    <i name="alphaZ">   1153.74521735 </i>
    <i name="ewald"> -11055.27976407 </i>
    <i name="hartreedc">  -2999.88523731 </i>
    <i name="XCdc">   -846.94511593 </i>
    <i name="pawpsdc">  19213.86982429 </i>
    <i name="pawaedc"> -17753.71193051 </i>
    <i name="eentropy">     -0.01447507 </i>
    <i name="bandstr">   -855.14574449 </i>
    <i name="atom">  12835.31476492 </i>
    <i name="e_fr_energy">   -308.05246081 </i>
    <i name="e_wo_entrp">   -308.03798574 </i>
    <i name="e_0_energy">   -308.04763579 </i>
   </energy>
  </scstep>
  <scstep>
   <time name="dav">   51.45   51.52</time>
   <time name="total">   52.15   52.26</time>
   <energy>
    <i name="e_fr_energy">   -309.41096403 </i>
    <i name="e_wo_entrp">   -309.40161995 </i>
    <i name="e_0_energy">   -309.40784934 </i>
   </energy>
  </scstep>
  <scstep>
   <time name="dav">   50.73   50.80</time>
   <time name="total">   51.40   51.47</time>
   <energy>
    <i name="e_fr_energy">   -308.44692521 </i>
    <i name="e_wo_entrp">   -308.43748350 </i>
    <i name="e_0_energy">   -308.44377797 </i>
   </energy>
  </scstep>
  <scstep>
   <time name="dav">   47.24   47.30</time>
   <time name="total">   47.93   48.01</time>
   <energy>
    <i name="e_fr_energy">   -308.08781743 </i>
    <i name="e_wo_entrp">   -308.08490991 </i>
    <i name="e_0_energy">   -308.08684826 </i>
   </energy>
  </scstep>
  <scstep>
   <time name="dav">   49.73   49.80</time>
   <time name="total">   50.41   50.48</time>
   <energy>
    <i name="e_fr_energy">   -307.61622244 </i>
    <i name="e_wo_entrp">   -307.60494068 </i>
    <i name="e_0_energy">   -307.61246186 </i>
   </energy>
  </scstep>
  <scstep>
   <time name="dav">   49.19   49.26</time>
   <time name="total">   49.86   49.95</time>
   <energy>
    <i name="e_fr_energy">   -307.42643622 </i>
    <i name="e_wo_entrp">   -307.41540692 </i>
    <i name="e_0_energy">   -307.42275979 </i>
   </energy>
  </scstep>
  <scstep>
   <time name="dav">   50.98   51.05</time>
   <time name="total">   51.65   51.71</time>
   <energy>
    <i name="e_fr_energy">   -307.41237415 </i>
    <i name="e_wo_entrp">   -307.40061475 </i>
    <i name="e_0_energy">   -307.40845435 </i>
   </energy>
  </scstep>
  <scstep>
   <time name="dav">   50.30   50.37</time>
   <time name="total">   50.99   51.07</time>
   <energy>
    <i name="e_fr_energy">   -307.36998197 </i>
    <i name="e_wo_entrp">   -307.35812701 </i>
    <i name="e_0_energy">   -307.36603032 </i>
   </energy>
  </scstep>
  <scstep>
   <time name="dav">   47.79   47.85</time>
   <time name="total">   48.45   48.52</time>
   <energy>
    <i name="e_fr_energy">   -307.35244743 </i>
    <i name="e_wo_entrp">   -307.33969145 </i>
[...]
       <r>    4.7158    1.0000 </r>
       <r>    4.8010    1.0000 </r>
       <r>    4.8282    1.0000 </r>
       <r>    4.9213    1.0000 </r>
       <r>    4.9858    1.0000 </r>
       <r>    5.0182    1.0000 </r>
       <r>    5.0570    1.0000 </r>
       <r>    5.1473    1.0000 </r>
       <r>    5.1755    1.0000 </r>
       <r>    5.2066    1.0000 </r>
       <r>    5.2514    1.0000 </r>
       <r>    5.3217    1.0000 </r>
       <r>    5.3566    1.0000 </r>
       <r>    5.4720    1.0000 </r>
       <r>    5.5094    1.0000 </r>
       <r>    5.5530    1.0000 </r>
       <r>    5.6020    1.0000 </r>
       <r>    5.6314    1.0000 </r>
       <r>    5.7002    1.0000 </r>
       <r>    5.7494    1.0000 </r>
       <r>    5.7870    1.0000 </r>
       <r>    5.8754    1.0000 </r>
       <r>    5.9104    1.0000 </r>
       <r>    5.9904    1.0000 </r>
       <r>    6.0984    1.0005 </r>
       <r>    6.1470    1.0015 </r>
       <r>    6.1640    1.0022 </r>
       <r>    6.2343    1.0080 </r>
       <r>    6.3063    1.0212 </r>
       <r>    6.3468    1.0303 </r>
       <r>    6.3698    1.0341 </r>
       <r>    6.3830    1.0353 </r>
       <r>    6.4317    1.0266 </r>
       <r>    6.4982    0.9534 </r>
       <r>    6.5336    0.8729 </r>
       <r>    6.5697    0.7591 </r>
       <r>    6.6582    0.4008 </r>
       <r>    6.7346    0.1300 </r>
       <r>    6.8388   -0.0272 </r>
       <r>    6.8850   -0.0353 </r>
       <r>    6.9735   -0.0188 </r>
       <r>    6.9901   -0.0153 </r>
       <r>    7.0912   -0.0029 </r>
       <r>    7.1781   -0.0004 </r>
       <r>    7.2173   -0.0002 </r>
       <r>    7.3549   -0.0000 </r>
       <r>    7.4470   -0.0000 </r>
       <r>    7.5018   -0.0000 </r>
       <r>    7.6742   -0.0000 </r>
       <r>    7.7795   -0.0000 </r>
       <r>    7.9198   -0.0000 </r>
       <r>    7.9857   -0.0000 </r>
       <r>    8.0910   -0.0000 </r>
       <r>    8.2054   -0.0000 </r>
       <r>    8.2949   -0.0000 </r>
       <r>    8.3679   -0.0000 </r>
       <r>    8.5286   -0.0000 </r>
       <r>    8.5886   -0.0000 </r>
       <r>    8.6903   -0.0000 </r>
       <r>    8.7276   -0.0000 </r>
       <r>    8.7544   -0.0000 </r>
      </set>
     </set>
    </set>
   </array>
  </eigenvalues>
  <separator name="orbital magnetization" >
   <v name="MAGDIPOLOUT">      0.00000000      0.00000000      0.00000000</v>
  </separator>
  <dos>
   <i name="efermi">      6.63461348 </i>
   <total>
    <array>
     <dimension dim="1">gridpoints</dimension>
     <dimension dim="2">spin</dimension>
     <field>energy</field>
     <field>total</field>
     <field>integrated</field>
     <set>
      <set comment="spin 1">
       <r>   -50.5362     0.0000     0.0000 </r>
       <r>   -50.3289     0.0000     0.0000 </r>
       <r>   -50.1216     0.0000     0.0000 </r>
       <r>   -49.9143     0.0000     0.0000 </r>
       <r>   -49.7070     0.0000     0.0000 </r>
       <r>   -49.4997    -0.0000    -0.0000 </r>
       <r>   -49.2924    -0.0000    -0.0000 </r>
       <r>   -49.0851    -0.0000    -0.0000 </r>
       <r>   -48.8778    -0.0000    -0.0000 </r>
       <r>   -48.6705    -0.0000    -0.0000 </r>
       <r>   -48.4632    -0.0000    -0.0000 </r>
       <r>   -48.2560    -0.0037    -0.0008 </r>
       <r>   -48.0487    -0.1766    -0.0374 </r>
       <r>   -47.8414     0.6285     0.0929 </r>
       <r>   -47.6341     6.1760     1.3732 </r>
       <r>   -47.4268    11.2572     3.7067 </r>
       <r>   -47.2195    27.1799     9.3409 </r>
       <r>   -47.0122    12.7435    11.9825 </r>
       <r>   -46.8049     0.3460    12.0542 </r>
       <r>   -46.5976    -0.2558    12.0012 </r>
       <r>   -46.3903    -0.0058    12.0000 </r>
       <r>   -46.1830    -0.0000    12.0000 </r>
       <r>   -45.9757    -0.0000    12.0000 </r>
       <r>   -45.7684    -0.0000    12.0000 </r>
       <r>   -45.5612     0.0000    12.0000 </r>
       <r>   -45.3539     0.0000    12.0000 </r>
       <r>   -45.1466     0.0000    12.0000 </r>
       <r>   -44.9393     0.0000    12.0000 </r>
       <r>   -44.7320     0.0000    12.0000 </r>
       <r>   -44.5247     0.0000    12.0000 </r>
       <r>   -44.3174     0.0000    12.0000 </r>
       <r>   -44.1101     0.0000    12.0000 </r>
       <r>   -43.9028     0.0000    12.0000 </r>
       <r>   -43.6955     0.0000    12.0000 </r>
       <r>   -43.4882     0.0000    12.0000 </r>
       <r>   -43.2809     0.0000    12.0000 </r>
       <r>   -43.0736     0.0000    12.0000 </r>
       <r>   -42.8663     0.0000    12.0000 </r>
       <r>   -42.6591     0.0000    12.0000 </r>
       <r>   -42.4518     0.0000    12.0000 </r>
       <r>   -42.2445     0.0000    12.0000 </r>
       <r>   -42.0372     0.0000    12.0000 </r>
       <r>   -41.8299     0.0000    12.0000 </r>
       <r>   -41.6226     0.0000    12.0000 </r>
       <r>   -41.4153     0.0000    12.0000 </r>
       <r>   -41.2080     0.0000    12.0000 </r>
       <r>   -41.0007     0.0000    12.0000 </r>
       <r>   -40.7934     0.0000    12.0000 </r>
       <r>   -40.5861     0.0000    12.0000 </r>
       <r>   -40.3788     0.0000    12.0000 </r>
       <r>   -40.1715     0.0000    12.0000 </r>
       <r>   -39.9643     0.0000    12.0000 </r>
       <r>   -39.7570     0.0000    12.0000 </r>
       <r>   -39.5497     0.0000    12.0000 </r>
       <r>   -39.3424     0.0000    12.0000 </r>
       <r>   -39.1351     0.0000    12.0000 </r>
       <r>   -38.9278     0.0000    12.0000 </r>
       <r>   -38.7205     0.0000    12.0000 </r>
       <r>   -38.5132     0.0000    12.0000 </r>
       <r>   -38.3059     0.0000    12.0000 </r>
       <r>   -38.0986     0.0000    12.0000 </r>
       <r>   -37.8913     0.0000    12.0000 </r>
       <r>   -37.6840     0.0000    12.0000 </r>
       <r>   -37.4767     0.0000    12.0000 </r>
       <r>   -37.2695     0.0000    12.0000 </r>
       <r>   -37.0622     0.0000    12.0000 </r>
       <r>   -36.8549     0.0000    12.0000 </r>
       <r>   -36.6476     0.0000    12.0000 </r>
       <r>   -36.4403     0.0000    12.0000 </r>
       <r>   -36.2330     0.0000    12.0000 </r>
       <r>   -36.0257     0.0000    12.0000 </r>
       <r>   -35.8184     0.0000    12.0000 </r>
       <r>   -35.6111     0.0000    12.0000 </r>
       <r>   -35.4038     0.0000    12.0000 </r>
       <r>   -35.1965     0.0000    12.0000 </r>
       <r>   -34.9892     0.0000    12.0000 </r>
       <r>   -34.7819     0.0000    12.0000 </r>
       <r>   -34.5747     0.0000    12.0000 </r>
       <r>   -34.3674     0.0000    12.0000 </r>
       <r>   -34.1601     0.0000    12.0000 </r>
       <r>   -33.9528     0.0000    12.0000 </r>
       <r>   -33.7455     0.0000    12.0000 </r>
       <r>   -33.5382     0.0000    12.0000 </r>
       <r>   -33.3309     0.0000    12.0000 </r>
       <r>   -33.1236     0.0000    12.0000 </r>
       <r>   -32.9163     0.0000    12.0000 </r>
       <r>   -32.7090     0.0000    12.0000 </r>
       <r>   -32.5017     0.0000    12.0000 </r>
       <r>   -32.2944     0.0000    12.0000 </r>
       <r>   -32.0871     0.0000    12.0000 </r>
       <r>   -31.8799     0.0000    12.0000 </r>
       <r>   -31.6726     0.0000    12.0000 </r>
       <r>   -31.4653     0.0000    12.0000 </r>
       <r>   -31.2580     0.0000    12.0000 </r>
       <r>   -31.0507     0.0000    12.0000 </r>
       <r>   -30.8434     0.0000    12.0000 </r>
       <r>   -30.6361     0.0000    12.0000 </r>
       <r>   -30.4288     0.0000    12.0000 </r>
       <r>   -30.2215     0.0000    12.0000 </r>
       <r>   -30.0142     0.0000    12.0000 </r>
       <r>   -29.8069     0.0000    12.0000 </r>
       <r>   -29.5996     0.0000    12.0000 </r>
       <r>   -29.3923     0.0000    12.0000 </r>
       <r>   -29.1851     0.0000    12.0000 </r>
       <r>   -28.9778     0.0000    12.0000 </r>
       <r>   -28.7705     0.0000    12.0000 </r>
       <r>   -28.5632     0.0000    12.0000 </r>
       <r>   -28.3559     0.0000    12.0000 </r>
       <r>   -28.1486     0.0000    12.0000 </r>
       <r>   -27.9413     0.0000    12.0000 </r>
       <r>   -27.7340     0.0000    12.0000 </r>
       <r>   -27.5267     0.0000    12.0000 </r>
       <r>   -27.3194     0.0000    12.0000 </r>
       <r>   -27.1121     0.0000    12.0000 </r>
       <r>   -26.9048     0.0000    12.0000 </r>
       <r>   -26.6975     0.0000    12.0000 </r>
       <r>   -26.4903     0.0000    12.0000 </r>
       <r>   -26.2830     0.0000    12.0000 </r>
       <r>   -26.0757     0.0000    12.0000 </r>
       <r>   -25.8684    -0.0000    12.0000 </r>
       <r>   -25.6611    -0.0000    12.0000 </r>
       <r>   -25.4538    -0.0000    12.0000 </r>
       <r>   -25.2465    -0.0000    12.0000 </r>
       <r>   -25.0392    -0.0000    12.0000 </r>
       <r>   -24.8319    -0.0000    12.0000 </r>
       <r>   -24.6246    -0.0053    11.9989 </r>
       <r>   -24.4173    -0.2467    11.9477 </r>
       <r>   -24.2100     0.1586    11.9806 </r>
       <r>   -24.0027    13.2766    14.7328 </r>
       <r>   -23.7954    25.4170    20.0015 </r>
       <r>   -23.5882    30.3376    26.2903 </r>
       <r>   -23.3809    53.4085    37.3614 </r>
       <r>   -23.1736    32.8089    44.1625 </r>
       <r>   -22.9663    13.8358    47.0305 </r>
       <r>   -22.7590     3.9875    47.8571 </r>
       <r>   -22.5517     0.8255    48.0282 </r>
       <r>   -22.3444    -0.1267    48.0020 </r>
       <r>   -22.1371    -0.0094    48.0000 </r>
       <r>   -21.9298    -0.0001    48.0000 </r>
       <r>   -21.7225    -0.0000    48.0000 </r>
       <r>   -21.5152    -0.0000    48.0000 </r>
       <r>   -21.3079     0.0000    48.0000 </r>
       <r>   -21.1006     0.0000    48.0000 </r>
       <r>   -20.8934     0.0000    48.0000 </r>
       <r>   -20.6861     0.0000    48.0000 </r>
       <r>   -20.4788     0.0000    48.0000 </r>
       <r>   -20.2715     0.0000    48.0000 </r>
       <r>   -20.0642     0.0000    48.0000 </r>
       <r>   -19.8569     0.0000    48.0000 </r>
       <r>   -19.6496     0.0000    48.0000 </r>
       <r>   -19.4423     0.0000    48.0000 </r>
       <r>   -19.2350     0.0000    48.0000 </r>
       <r>   -19.0277     0.0000    48.0000 </r>
       <r>   -18.8204     0.0000    48.0000 </r>
       <r>   -18.6131     0.0000    48.0000 </r>
       <r>   -18.4058     0.0000    48.0000 </r>
       <r>   -18.1986     0.0000    48.0000 </r>
       <r>   -17.9913     0.0000    48.0000 </r>
       <r>   -17.7840     0.0000    48.0000 </r>
       <r>   -17.5767     0.0000    48.0000 </r>
       <r>   -17.3694     0.0000    48.0000 </r>
       <r>   -17.1621     0.0000    48.0000 </r>
       <r>   -16.9548     0.0000    48.0000 </r>
       <r>   -16.7475     0.0000    48.0000 </r>
       <r>   -16.5402     0.0000    48.0000 </r>
       <r>   -16.3329     0.0000    48.0000 </r>
       <r>   -16.1256     0.0000    48.0000 </r>
       <r>   -15.9183     0.0000    48.0000 </r>
       <r>   -15.7110     0.0000    48.0000 </r>
       <r>   -15.5038     0.0000    48.0000 </r>
       <r>   -15.2965     0.0000    48.0000 </r>
       <r>   -15.0892     0.0000    48.0000 </r>
       <r>   -14.8819     0.0000    48.0000 </r>
       <r>   -14.6746     0.0000    48.0000 </r>
       <r>   -14.4673     0.0000    48.0000 </r>
       <r>   -14.2600     0.0000    48.0000 </r>
       <r>   -14.0527     0.0000    48.0000 </r>
       <r>   -13.8454     0.0000    48.0000 </r>
       <r>   -13.6381     0.0000    48.0000 </r>
       <r>   -13.4308     0.0000    48.0000 </r>
       <r>   -13.2235     0.0000    48.0000 </r>
       <r>   -13.0162     0.0000    48.0000 </r>
       <r>   -12.8090     0.0000    48.0000 </r>
       <r>   -12.6017     0.0000    48.0000 </r>
       <r>   -12.3944     0.0000    48.0000 </r>
       <r>   -12.1871     0.0000    48.0000 </r>
       <r>   -11.9798     0.0000    48.0000 </r>
       <r>   -11.7725     0.0000    48.0000 </r>
       <r>   -11.5652     0.0000    48.0000 </r>
       <r>   -11.3579     0.0000    48.0000 </r>
       <r>   -11.1506     0.0000    48.0000 </r>
       <r>   -10.9433     0.0000    48.0000 </r>
       <r>   -10.7360     0.0000    48.0000 </r>
       <r>   -10.5287     0.0000    48.0000 </r>
       <r>   -10.3214     0.0000    48.0000 </r>
       <r>   -10.1142     0.0000    48.0000 </r>
       <r>    -9.9069     0.0000    48.0000 </r>
       <r>    -9.6996     0.0000    48.0000 </r>
       <r>    -9.4923     0.0000    48.0000 </r>
       <r>    -9.2850     0.0000    48.0000 </r>
       <r>    -9.0777     0.0000    48.0000 </r>
       <r>    -8.8704     0.0000    48.0000 </r>
       <r>    -8.6631     0.0000    48.0000 </r>
       <r>    -8.4558     0.0000    48.0000 </r>
       <r>    -8.2485     0.0000    48.0000 </r>
       <r>    -8.0412     0.0000    48.0000 </r>
       <r>    -7.8339     0.0000    48.0000 </r>
       <r>    -7.6266     0.0000    48.0000 </r>
       <r>    -7.4193     0.0000    48.0000 </r>
       <r>    -7.2121     0.0000    48.0000 </r>
       <r>    -7.0048     0.0000    48.0000 </r>
       <r>    -6.7975     0.0000    48.0000 </r>
       <r>    -6.5902     0.0000    48.0000 </r>
       <r>    -6.3829     0.0000    48.0000 </r>
       <r>    -6.1756     0.0000    48.0000 </r>
       <r>    -5.9683     0.0000    48.0000 </r>
       <r>    -5.7610     0.0000    48.0000 </r>
       <r>    -5.5537     0.0000    48.0000 </r>
       <r>    -5.3464     0.0000    48.0000 </r>
       <r>    -5.1391     0.0000    48.0000 </r>
       <r>    -4.9318     0.0000    48.0000 </r>
       <r>    -4.7245     0.0000    48.0000 </r>
       <r>    -4.5173     0.0000    48.0000 </r>
       <r>    -4.3100     0.0000    48.0000 </r>
       <r>    -4.1027     0.0000    48.0000 </r>
       <r>    -3.8954     0.0000    48.0000 </r>
       <r>    -3.6881     0.0000    48.0000 </r>
       <r>    -3.4808     0.0000    48.0000 </r>
       <r>    -3.2735     0.0000    48.0000 </r>
       <r>    -3.0662     0.0000    48.0000 </r>
       <r>    -2.8589     0.0000    48.0000 </r>
       <r>    -2.6516     0.0000    48.0000 </r>
       <r>    -2.4443     0.0000    48.0000 </r>
       <r>    -2.2370     0.0000    48.0000 </r>
       <r>    -2.0297     0.0000    48.0000 </r>
       <r>    -1.8225    -0.0000    48.0000 </r>
       <r>    -1.6152    -0.0000    48.0000 </r>
       <r>    -1.4079    -0.0000    48.0000 </r>
       <r>    -1.2006    -0.0000    48.0000 </r>
       <r>    -0.9933    -0.0000    48.0000 </r>
       <r>    -0.7860    -0.0000    48.0000 </r>
       <r>    -0.5787    -0.0009    47.9998 </r>
       <r>    -0.3714    -0.0144    47.9968 </r>
       <r>    -0.1641     0.0634    48.0100 </r>
       <r>     0.0432     0.6723    48.1493 </r>
       <r>     0.2505     1.2171    48.4016 </r>
       <r>     0.4578     1.5377    48.7204 </r>
       <r>     0.6651     2.1423    49.1645 </r>
       <r>     0.8723     1.8590    49.5498 </r>
       <r>     1.0796     2.5560    50.0797 </r>
       <r>     1.2869     3.1236    50.7272 </r>
       <r>     1.4942     3.1172    51.3733 </r>
       <r>     1.7015     3.7082    52.1420 </r>
       <r>     1.9088     4.3270    53.0390 </r>
       <r>     2.1161     5.1264    54.1016 </r>
       <r>     2.3234     5.9501    55.3351 </r>
       <r>     2.5307     9.6164    57.3285 </r>
       <r>     2.7380    15.8811    60.6205 </r>
       <r>     2.9453    21.1904    65.0131 </r>
       <r>     3.1526    25.6488    70.3299 </r>
       <r>     3.3599    27.7267    76.0774 </r>
       <r>     3.5671    30.8750    82.4776 </r>
       <r>     3.7744    30.9970    88.9030 </r>
       <r>     3.9817    30.3950    95.2036 </r>
       <r>     4.1890    29.2930   101.2759 </r>
       <r>     4.3963    28.0301   107.0863 </r>
       <r>     4.6036    27.6984   112.8280 </r>
       <r>     4.8109    32.2859   119.5206 </r>
       <r>     5.0182    37.7923   127.3546 </r>
       <r>     5.2255    41.0952   135.8734 </r>
       <r>     5.4328    41.1300   144.3993 </r>
       <r>     5.6401    40.1945   152.7313 </r>
       <r>     5.8474    39.1932   160.8558 </r>
       <r>     6.0547    40.9024   169.3345 </r>
       <r>     6.2619    41.7659   177.9923 </r>
       <r>     6.4692    41.9024   186.6783 </r>
       <r>     6.6765    37.5025   194.4523 </r>
       <r>     6.8838    31.6389   201.0108 </r>
       <r>     7.0911    27.3066   206.6713 </r>
       <r>     7.2984    23.1678   211.4738 </r>
       <r>     7.5057    19.9439   215.6080 </r>
       <r>     7.7130    19.0616   219.5593 </r>
       <r>     7.9203    21.6494   224.0471 </r>
       <r>     8.1276    25.0972   229.2495 </r>
       <r>     8.3349    24.7307   234.3760 </r>
       <r>     8.5422    18.5935   238.2303 </r>
       <r>     8.7495     7.9892   239.8864 </r>
       <r>     8.9567     0.7240   240.0365 </r>
       <r>     9.1640    -0.1646   240.0024 </r>
       <r>     9.3713    -0.0115   240.0000 </r>
       <r>     9.5786    -0.0001   240.0000 </r>
       <r>     9.7859    -0.0000   240.0000 </r>
       <r>     9.9932    -0.0000   240.0000 </r>
       <r>    10.2005    -0.0000   240.0000 </r>
       <r>    10.4078     0.0000   240.0000 </r>
       <r>    10.6151     0.0000   240.0000 </r>
       <r>    10.8224     0.0000   240.0000 </r>
       <r>    11.0297     0.0000   240.0000 </r>
       <r>    11.2370     0.0000   240.0000 </r>
       <r>    11.4443     0.0000   240.0000 </r>
       <r>    11.6516     0.0000   240.0000 </r>
      </set>
     </set>
    </array>
   </total>
  </dos>
 </calculation>
 <structure name="finalpos" >
  <crystal>
   <varray name="basis" >
    <v>      -3.17489370      -3.12276849      -3.18659747 </v>
    <v>       1.51155719       1.53563084      -7.86705114 </v>
    <v>       7.94211393      -7.86897279      -1.53446411 </v>
   </varray>
   <i name="volume">    468.66257636 </i>
   <varray name="rec_basis" >
    <v>      -0.13711780      -0.12836866      -0.05140278 </v>
    <v>       0.04327948       0.06439618      -0.10622682 </v>
    <v>       0.06286061      -0.06357191      -0.00033120 </v>
   </varray>
  </crystal>
  <varray name="positions" >
   <v>       0.95333862       0.93025981       0.40135337 </v>
   <v>       0.63016436       0.26218978       0.40210758 </v>
   <v>       0.49114367       0.00332717      -0.00620922 </v>
   <v>      -0.01206672       0.00643038      -0.00171551 </v>
   <v>       0.03944201       0.25644112       0.79397857 </v>
   <v>       0.03216608       0.07045791       0.60195415 </v>
   <v>       0.89852896       0.79434376       0.20205325 </v>
   <v>       0.80509564       0.58965162       0.40098803 </v>
   <v>       0.72726526       0.46844479       0.19670714 </v>
   <v>       0.66352258       0.33986258      -0.00127879 </v>
   <v>       0.36570165       0.72730616       0.60076935 </v>
   <v>       0.12698032       0.27095564       0.40040642 </v>
   <v>       0.82002229       0.65849080      -0.00860798 </v>
   <v>       0.94882896       0.86403526       0.80069932 </v>
   <v>       0.55951179       0.13095238       0.19763824 </v>
   <v>       0.39989409       0.79221230       0.19649895 </v>
   <v>       0.44517437       0.86634541       0.79539752 </v>
   <v>       0.30033155       0.59798744       0.40398900 </v>
   <v>       0.85769781       0.70736490       0.61613357 </v>
   <v>       0.46136628       0.92722927       0.41031391 </v>
   <v>       0.18586071       0.34165782      -0.00146809 </v>
   <v>       0.39468084       0.52653772       0.79694410 </v>
   <v>       0.22450108       0.38613808       0.59704022 </v>
   <v>       0.05388304       0.15075368       0.20325536 </v>
   <v>       0.70531914       0.39980734       0.59946636 </v>
   <v>       0.58009908       0.19904813       0.79228682 </v>
   <v>       0.54010954       0.06409050       0.61002433 </v>
   <v>       0.31464277       0.65946014       0.00233693 </v>
   <v>       0.22012756       0.47488477       0.19693714 </v>
  </varray>
 </structure>
</modeling>
