Nb - Mo - Ta - Ti - V SQS               
           1
    -3.160000   -3.160000   -3.160000
     1.580000    1.580000   -7.900000
     7.900000   -7.900000   -1.580000
   Nb   Mo   Ta   Ti   V 
   6   6   6   6   5
Direct configuration=     1
   0.96666667  0.93333333  0.40000000
   0.63333333  0.26666667  0.40000000
   0.50000000  0.00000000  0.00000000
   0.00000000  0.00000000  0.00000000
   0.10000000  0.20000000  0.80000000
   0.03333333  0.06666667  0.60000000
   0.90000000  0.80000000  0.20000000
   0.80000000  0.60000000  0.40000000
   0.73333333  0.46666667  0.20000000
   0.66666667  0.33333333  0.00000000
   0.36666667  0.73333333  0.60000000
   0.13333333  0.26666667  0.40000000
   0.83333333  0.66666667  0.00000000
   0.93333333  0.86666667  0.80000000
   0.56666667  0.13333333  0.20000000
   0.40000000  0.80000000  0.20000000
   0.43333333  0.86666667  0.80000000
   0.30000000  0.60000000  0.40000000
   0.86666667  0.73333333  0.60000000
   0.46666667  0.93333333  0.40000000
   0.16666667  0.33333333  0.00000000
   0.26666667  0.53333333  0.80000000
   0.20000000  0.40000000  0.60000000
   0.06666667  0.13333333  0.20000000
   0.70000000  0.40000000  0.60000000
   0.60000000  0.20000000  0.80000000
   0.53333333  0.06666667  0.60000000
   0.33333333  0.66666667  0.00000000
   0.23333333  0.46666667  0.20000000
Nb - Mo - Ta - Ti - V SQS               
           1
    -3.142298   -3.131788   -3.146567
     1.572788    1.576733   -7.878894
     7.914445   -7.893757   -1.567696
   Nb   Mo   Ta   Ti   V 
   6   6   6   6   5
Direct configuration=     2
   0.96228626  0.93389104  0.39842181
   0.63237321  0.26708274  0.40146578
   0.49890243  0.00202063 -0.00205201
  -0.00113500  0.00068108  0.00016265
   0.09536792  0.20765047  0.79811701
   0.03415318  0.06901558  0.59952951
   0.90282801  0.79730279  0.20199674
   0.80347079  0.59508647  0.40010639
   0.73258275  0.46722298  0.19819530
   0.66297500  0.33810152 -0.00115796
   0.36600807  0.73107824  0.60001949
   0.13242305  0.27073818  0.40010841
   0.83408067  0.66221239  0.00067148
   0.93434599  0.87148483  0.79960790
   0.56508277  0.13486510  0.19846552
   0.40389512  0.79408907  0.19791110
   0.43850246  0.85935211  0.79761431
   0.30030499  0.60010510  0.40263446
   0.86286622  0.73199579  0.59972287
   0.46678574  0.93224630  0.40330595
   0.17398240  0.33284932  0.00220722
   0.27213304  0.53345988  0.79971451
   0.20610753  0.39534817  0.59769152
   0.06488522  0.13864271  0.20214880
   0.69530337  0.40238785  0.60000543
   0.59580287  0.19870698  0.79956815
   0.53544389  0.06750040  0.60264135
   0.33059057  0.66275361  0.00178472
   0.23098482  0.46879534  0.19939160
Nb - Mo - Ta - Ti - V SQS               
           1
    -3.119687   -3.095754   -3.129409
     1.563576    1.572559   -7.851937
     7.932895   -7.885783   -1.551982
   Nb   Mo   Ta   Ti   V 
   6   6   6   6   5
Direct configuration=     3
   0.95664642  0.93461105  0.39640353
   0.63114490  0.26761754  0.40333629
   0.49748131  0.00460939 -0.00467187
  -0.00259401  0.00155508  0.00036953
   0.08940050  0.21745485  0.79571168
   0.03520446  0.07202262  0.59893034
   0.90647426  0.79384500  0.20454732
   0.80793610  0.58878847  0.40024360
   0.73160945  0.46793590  0.19589096
   0.65822109  0.34421331 -0.00263783
   0.36516212  0.72819096  0.60004309
   0.13125149  0.27595415  0.40024734
   0.83504627  0.65650670  0.00152790
   0.93564463  0.87765412  0.79910975
   0.56303875  0.13682864  0.19650576
   0.40889680  0.78651221  0.19524586
   0.44514159  0.84997559  0.79457083
   0.30070872  0.60024024  0.40599789
   0.85797857  0.73028808  0.59936540
   0.46695378  0.93085513  0.40752606
   0.18339944  0.33221973  0.00503105
   0.27916083  0.53361399  0.79935478
   0.21395267  0.38938065  0.59474826
   0.06260195  0.14544610  0.20489211
   0.68926320  0.40545287  0.60000912
   0.59040444  0.19705681  0.79901285
   0.53816913  0.06856616  0.60601535
   0.32707302  0.65774653  0.00405948
   0.22796145  0.47152482  0.19861360
Nb - Mo - Ta - Ti - V SQS               
           1
    -3.154386   -3.121830   -3.174281
     1.569041    1.584012   -7.950862
     8.063659   -8.005857   -1.563562
   Nb   Mo   Ta   Ti   V 
   6   6   6   6   5
Direct configuration=     4
   0.95301146  0.93571073  0.39599371
   0.63062615  0.26764904  0.40350525
   0.49838355  0.00220293 -0.00710705
  -0.00382004  0.00397078  0.00086274
   0.08121139  0.22687325  0.79402697
   0.03608607  0.07432836  0.59829228
   0.90748743  0.79192886  0.20456448
   0.80939551  0.58695889  0.40072457
   0.73134914  0.46617581  0.19615251
   0.65456524  0.34994244 -0.00530266
   0.36518475  0.72563701  0.60003268
   0.12995178  0.27721053  0.40044151
   0.83456271  0.65503396 -0.00022326
   0.93568097  0.88045050  0.79915939
   0.56192853  0.13736840  0.19597906
   0.41152319  0.78449086  0.19431741
   0.45273147  0.84267951  0.79354369
   0.30257717  0.60069811  0.40732173
   0.85387295  0.72790023  0.60019249
   0.46641247  0.92922880  0.41022321
   0.19217842  0.33217406  0.00681261
   0.28703738  0.53303042  0.79893035
   0.21931654  0.38459408  0.59298290
   0.06028896  0.15014368  0.20686398
   0.68566159  0.40836789  0.60142589
   0.58481396  0.19698892  0.79765429
   0.54103142  0.06836585  0.60976764
   0.32433962  0.65251319  0.00466110
   0.22594352  0.47404960  0.19820055
Nb - Mo - Ta - Ti - V SQS               
           1
    -3.137848   -3.109401   -3.152894
     1.566436    1.578554   -7.903712
     8.001334   -7.948627   -1.558043
   Nb   Mo   Ta   Ti   V 
   6   6   6   6   5
Direct configuration=     5
   0.95472779  0.93518997  0.39618669
   0.63087069  0.26763374  0.40342610
   0.49795689  0.00333855 -0.00596432
  -0.00323882  0.00283132  0.00063122
   0.08508866  0.22242958  0.79481782
   0.03567416  0.07324274  0.59859104
   0.90700684  0.79283255  0.20455651
   0.80870414  0.58782194  0.40049886
   0.73146916  0.46700491  0.19603016
   0.65630013  0.34724103 -0.00405243
   0.36517045  0.72684052  0.60003799
   0.13056638  0.27661744  0.40035051
   0.83479032  0.65572828  0.00059872
   0.93566777  0.87913278  0.79913562
   0.56245342  0.13711343  0.19622636
   0.41028249  0.78544570  0.19475272
   0.44914240  0.84612370  0.79402499
   0.30169535  0.60048322  0.40670006
   0.85580512  0.72902206  0.59980585
   0.46666292  0.92999371  0.40895815
   0.18803621  0.33220143  0.00597459
   0.28332209  0.53331146  0.79912765
   0.21678160  0.38685434  0.59381068
   0.06138468  0.14792754  0.20593858
   0.68736305  0.40699100  0.60076155
   0.58745181  0.19701727  0.79829309
   0.53967765  0.06846090  0.60800645
   0.32562077  0.65497701  0.00438039
   0.22689923  0.47285851  0.19839441
Nb - Mo - Ta - Ti - V SQS               
           1
    -3.135943   -3.108082   -3.158079
     1.551411    1.566420   -7.891398
     7.989750   -7.944986   -1.554175
   Nb   Mo   Ta   Ti   V 
   6   6   6   6   5
Direct configuration=     6
   0.95461847  0.93551961  0.39694398
   0.63108872  0.26747054  0.40254610
   0.49996232 -0.00048524 -0.00671886
  -0.00422971  0.00464584  0.00095337
   0.08048569  0.22534180  0.79475998
   0.03598765  0.07348882  0.59856988
   0.90584645  0.79320996  0.20310622
   0.80774062  0.58977718  0.40062780
   0.73146913  0.46584043  0.19747154
   0.65571220  0.34883282 -0.00527599
   0.36529561  0.72626248  0.60002757
   0.12994161  0.27494304  0.40044703
   0.83359298  0.65761639 -0.00117601
   0.93555353  0.87859319  0.79941270
   0.56311090  0.13601723  0.19657745
   0.40992969  0.78745076  0.19553481
   0.45183977  0.84499750  0.79481723
   0.30287180  0.60095866  0.40575446
   0.85503619  0.72775439  0.60072518
   0.46599440  0.92924656  0.40908645
   0.19091179  0.33251979  0.00600641
   0.28712138  0.53262262  0.79882882
   0.21738048  0.38568666  0.59357767
   0.06034225  0.14852795  0.20630706
   0.68769431  0.40811290  0.60192655
   0.58518083  0.19769992  0.79725057
   0.54101178  0.06737334  0.60970758
   0.32512967  0.65298266  0.00359709
   0.22671283  0.47365887  0.19860736
Nb - Mo - Ta - Ti - V SQS               
           1
    -3.133851   -3.106633   -3.163776
     1.534906    1.553092   -7.877872
     7.977025   -7.940987   -1.549927
   Nb   Mo   Ta   Ti   V 
   6   6   6   6   5
Direct configuration=     7
   0.95449651  0.93588332  0.39777668
   0.63132968  0.26728997  0.40157850
   0.50217886 -0.00469905 -0.00754932
  -0.00532461  0.00664544  0.00130796
   0.07541925  0.22855298  0.79469715
   0.03633128  0.07375959  0.59854665
   0.90457186  0.79362549  0.20151176
   0.80667552  0.59193161  0.40077000
   0.73147144  0.46455890  0.19905612
   0.65506229  0.35058563 -0.00662095
   0.36543502  0.72562571  0.60001600
   0.12926062  0.27309934  0.40055286
   0.83227317  0.65969565 -0.00312690
   0.93542951  0.87799917  0.79971725
   0.56383647  0.13480957  0.19696322
   0.40953472  0.78966007  0.19639512
   0.45480606  0.84375553  0.79568798
   0.30416368  0.60148071  0.40471481
   0.85419465  0.72635940  0.60173576
   0.46526226  0.92842424  0.40922740
   0.19406989  0.33286822  0.00604134
   0.29129794  0.53186069  0.79849996
   0.21804249  0.38439989  0.59332122
   0.05919468  0.14919034  0.20671236
   0.68805338  0.40934921  0.60320767
   0.58268470  0.19845283  0.79610455
   0.54247932  0.06617566  0.61157770
   0.32459748  0.65078582  0.00273549
   0.22650520  0.47454073  0.19884167
Nb - Mo - Ta - Ti - V SQS               
           1
    -3.145636   -3.116141   -3.178407
     1.523917    1.542321   -7.882459
     7.992626   -7.957251   -1.550726
   Nb   Mo   Ta   Ti   V 
   6   6   6   6   5
Direct configuration=     8
   0.95457692  0.93575670  0.39840888
   0.63103727  0.26678702  0.40184912
   0.50142808 -0.00484793 -0.00753620
  -0.00646739  0.00762406  0.00103062
   0.07019629  0.23146757  0.79513136
   0.03625971  0.07325294  0.59955157
   0.90405078  0.79486355  0.20096945
   0.80669196  0.59328333  0.40051368
   0.73079306  0.46642109  0.19908734
   0.65564029  0.35128106 -0.00725804
   0.36527043  0.72561637  0.60040375
   0.12950917  0.27216398  0.40060205
   0.83292610  0.65872145 -0.00423857
   0.93797850  0.87757488  0.79930014
   0.56424518  0.13276935  0.19692096
   0.40829340  0.79098298  0.19696129
   0.45449137  0.84321294  0.79637715
   0.30354889  0.60137299  0.40367934
   0.85493866  0.72427523  0.60298403
   0.46486220  0.92798273  0.40925102
   0.19507570  0.33324043  0.00557887
   0.29528821  0.53082231  0.79764595
   0.21815335  0.38413196  0.59310629
   0.05903810  0.14902092  0.20682714
   0.68951838  0.41021992  0.60436444
   0.58108046  0.19889023  0.79491217
   0.54318763  0.06500704  0.61260120
   0.32505276  0.65006159  0.00200859
   0.22666785  0.47470996  0.19896642
Nb - Mo - Ta - Ti - V SQS               
           1
    -3.151242   -3.120663   -3.185366
     1.518691    1.537199   -7.884641
     8.000046   -7.964987   -1.551107
   Nb   Mo   Ta   Ti   V 
   6   6   6   6   5
Direct configuration=     9
   0.95461523  0.93569651  0.39870898
   0.63089944  0.26654773  0.40197756
   0.50107249 -0.00491864 -0.00753003
  -0.00701044  0.00809005  0.00089890
   0.06771668  0.23285592  0.79533715
   0.03622656  0.07301194  0.60002858
   0.90380197  0.79545286  0.20071199
   0.80669773  0.59392666  0.40039202
   0.73046878  0.46730756  0.19910212
   0.65591317  0.35161186 -0.00756042
   0.36519245  0.72561202  0.60058780
   0.12962837  0.27171874  0.40062541
   0.83323699  0.65825749 -0.00476622
   0.93918715  0.87737235  0.79910230
   0.56444193  0.13179819  0.19690092
   0.40770314  0.79161297  0.19722997
   0.45434305  0.84295484  0.79670427
   0.30325768  0.60132170  0.40318778
   0.85529439  0.72328326  0.60357660
   0.46467326  0.92777267  0.40926221
   0.19555181  0.33341732  0.00535941
   0.29718083  0.53032715  0.79724081
   0.21820629  0.38400438  0.59300427
   0.05896414  0.14894033  0.20688162
   0.69021139  0.41063420  0.60491364
   0.58031951  0.19909859  0.79434606
   0.54352507  0.06445082  0.61308708
   0.32526960  0.64971670  0.00166357
   0.22674468  0.47479049  0.19902564
Nb - Mo - Ta - Ti - V SQS               
           1
    -3.150810   -3.117591   -3.185878
     1.506747    1.524999   -7.863828
     7.985026   -7.947779   -1.546756
   Nb   Mo   Ta   Ti   V 
   6   6   6   6   5
Direct configuration=    10
   0.95453157  0.93545851  0.39910506
   0.63085947  0.26619155  0.40236557
   0.49990600 -0.00416135 -0.00749435
  -0.00792915  0.00842220  0.00054578
   0.06357382  0.23516188  0.79565916
   0.03611536  0.07263761  0.60084750
   0.90362380  0.79634260  0.20064763
   0.80687498  0.59420557  0.40011043
   0.72999986  0.46895766  0.19877613
   0.65646829  0.35190744 -0.00763844
   0.36506522  0.72565206  0.60080282
   0.12963715  0.27156234  0.40069697
   0.83405502  0.65718061 -0.00534522
   0.94085516  0.87703766  0.79893193
   0.56476036  0.13053809  0.19684964
   0.40680160  0.79216946  0.19731405
   0.45398632  0.84286077  0.79712483
   0.30257813  0.60116739  0.40273529
   0.85625729  0.72155710  0.60454095
   0.46444788  0.92760138  0.40943613
   0.19579620  0.33363083  0.00496058
   0.30050190  0.52947457  0.79639004
   0.21856398  0.38379943  0.59275927
   0.05884579  0.14895418  0.20693945
   0.69139373  0.41114218  0.60559726
   0.57938716  0.19916735  0.79350474
   0.54380306  0.06354699  0.61366060
   0.32568944  0.64966943  0.00125806
   0.22688395  0.47483117  0.19891815
Nb - Mo - Ta - Ti - V SQS               
           1
    -3.150696   -3.116776   -3.186014
     1.503580    1.521764   -7.858310
     7.981044   -7.943217   -1.545603
   Nb   Mo   Ta   Ti   V 
   6   6   6   6   5
Direct configuration=    11
   0.95450955  0.93539519  0.39921028
   0.63084911  0.26609679  0.40246864
   0.49959618 -0.00395979 -0.00748493
  -0.00817304  0.00851064  0.00045193
   0.06247370  0.23577569  0.79574451
   0.03608616  0.07253802  0.60106505
   0.90357602  0.79657933  0.20063052
   0.80692181  0.59427977  0.40003563
   0.72987452  0.46939671  0.19868950
   0.65661536  0.35198604 -0.00765915
   0.36503147  0.72566272  0.60085994
   0.12963957  0.27152073  0.40071598
   0.83427254  0.65689404 -0.00549900
   0.94129776  0.87694849  0.79888675
   0.56484553  0.13020282  0.19683603
   0.40656216  0.79231759  0.19733634
   0.45389180  0.84283576  0.79723654
   0.30239793  0.60112638  0.40261506
   0.85651376  0.72109777  0.60479719
   0.46438822  0.92755583  0.40948233
   0.19586087  0.33368761  0.00485464
   0.30138317  0.52924750  0.79616418
   0.21865895  0.38374487  0.59269420
   0.05881439  0.14895788  0.20695481
   0.69170710  0.41127725  0.60577892
   0.57913974  0.19918572  0.79328119
   0.54387737  0.06330651  0.61381297
   0.32580078  0.64965683  0.00115036
   0.22692085  0.47484198  0.19888960
Nb - Mo - Ta - Ti - V SQS               
           1
    -3.153430   -3.117907   -3.188181
     1.502457    1.521225   -7.860188
     7.979013   -7.938823   -1.544913
   Nb   Mo   Ta   Ti   V 
   6   6   6   6   5
Direct configuration=    12
   0.95427829  0.93526980  0.39936687
   0.63114125  0.26596703  0.40266529
   0.49871385 -0.00316185 -0.00755657
  -0.00840387  0.00828614  0.00028316
   0.06056983  0.23705142  0.79575958
   0.03592902  0.07251470  0.60127211
   0.90363628  0.79665814  0.20080875
   0.80690006  0.59373389  0.39997946
   0.73003188  0.46952227  0.19840616
   0.65683965  0.35193121 -0.00735036
   0.36512128  0.72566324  0.60076640
   0.12943581  0.27181553  0.40078641
   0.83463123  0.65662257 -0.00561161
   0.94121276  0.87652356  0.79912542
   0.56475977  0.13041295  0.19690695
   0.40633725  0.79229632  0.19695489
   0.45415457  0.84317516  0.79735782
   0.30231980  0.60093702  0.40285374
   0.85720304  0.72033960  0.60523888
   0.46431823  0.92770471  0.40975190
   0.19547227  0.33365286  0.00465378
   0.30317694  0.52883053  0.79568068
   0.21918350  0.38358959  0.59260456
   0.05871644  0.14919415  0.20687921
   0.69219237  0.41118659  0.60580568
   0.57896215  0.19898560  0.79309636
   0.54363475  0.06295925  0.61380016
   0.32587525  0.65017003  0.00112514
   0.22698967  0.47483467  0.19858918
Nb - Mo - Ta - Ti - V SQS               
           1
    -3.161632   -3.121299   -3.194684
     1.499086    1.519608   -7.865820
     7.972919   -7.925642   -1.542846
   Nb   Mo   Ta   Ti   V 
   6   6   6   6   5
Direct configuration=    13
   0.95358522  0.93489362  0.39983675
   0.63201745  0.26557767  0.40325555
   0.49606768 -0.00076819 -0.00777175
  -0.00909584  0.00761279 -0.00022344
   0.05486065  0.24087840  0.79580435
   0.03545814  0.07244467  0.60189348
   0.90381702  0.79689449  0.20134368
   0.80683534  0.59209648  0.39981081
   0.73050330  0.46989898  0.19755587
   0.65751244  0.35176657 -0.00642357
   0.36539044  0.72566484  0.60048572
   0.12882471  0.27269979  0.40099776
   0.83570676  0.65580824 -0.00594949
   0.94095856  0.87524883  0.79984164
   0.56450250  0.13104326  0.19711981
   0.40566260  0.79223269  0.19581001
   0.45494218  0.84419315  0.79772193
   0.30208598  0.60036893  0.40357003
   0.85927074  0.71806511  0.60656459
   0.46410850  0.92815121  0.41056095
   0.19430704  0.33354874  0.00405083
   0.30855476  0.52757973  0.79423010
   0.22075622  0.38312377  0.59233564
   0.05842248  0.14990294  0.20665230
   0.69364734  0.41091461  0.60588612
   0.57842971  0.19838542  0.79254158
   0.54290768  0.06191762  0.61376161
   0.32609801  0.65170948  0.00104955
   0.22719571  0.47481283  0.19768758
Nb - Mo - Ta - Ti - V SQS               
           1
    -3.160137   -3.119141   -3.193114
     1.499499    1.520370   -7.864835
     7.961133   -7.912185   -1.541951
   Nb   Mo   Ta   Ti   V 
   6   6   6   6   5
Direct configuration=    14
   0.95359883  0.93463647  0.40006251
   0.63218726  0.26550330  0.40317512
   0.49574953 -0.00054257 -0.00776668
  -0.00947301  0.00750076 -0.00008175
   0.05284878  0.24255848  0.79556080
   0.03502673  0.07220072  0.60205918
   0.90340810  0.79662553  0.20131577
   0.80694198  0.59183737  0.39986338
   0.73090531  0.46924217  0.19743232
   0.65727432  0.35146749 -0.00583865
   0.36580995  0.72578534  0.60048254
   0.12883108  0.27261140  0.40105794
   0.83526006  0.65665825 -0.00598992
   0.94148147  0.87423517  0.80011874
   0.56405499  0.13185197  0.19723462
   0.40584109  0.79227702  0.19567952
   0.45422392  0.84509374  0.79761223
   0.30242395  0.60045927  0.40345110
   0.86001742  0.71724100  0.60709180
   0.46382720  0.92826600  0.41080716
   0.19376561  0.33369244  0.00373610
   0.31168209  0.52739911  0.79400056
   0.22163940  0.38269266  0.59244307
   0.05820422  0.15018261  0.20647544
   0.69420464  0.41033246  0.60541461
   0.57790838  0.19798135  0.79266019
   0.54257447  0.06153741  0.61365099
   0.32592179  0.65235707  0.00090725
   0.22719376  0.47498268  0.19738403
Nb - Mo - Ta - Ti - V SQS               
           1
    -3.157393   -3.115183   -3.190232
     1.500258    1.521768   -7.863026
     7.939505   -7.887492   -1.540307
   Nb   Mo   Ta   Ti   V 
   6   6   6   6   5
Direct configuration=    15
   0.95362377  0.93416445  0.40047743
   0.63249899  0.26536684  0.40302732
   0.49516547 -0.00012851 -0.00775739
  -0.01016552  0.00729514  0.00017864
   0.04915541  0.24564187  0.79511305
   0.03423458  0.07175300  0.60236369
   0.90265718  0.79613201  0.20126443
   0.80713770  0.59136185  0.39996001
   0.73164314  0.46803688  0.19720526
   0.65683717  0.35091839 -0.00476362
   0.36658025  0.72600645  0.60047675
   0.12884277  0.27244915  0.40116855
   0.83444019  0.65821816 -0.00606424
   0.94244127  0.87237481  0.80062805
   0.56323367  0.13333603  0.19744562
   0.40616879  0.79235844  0.19543971
   0.45290544  0.84674653  0.79741059
   0.30304450  0.60062509  0.40323255
   0.86138821  0.71572837  0.60806084
   0.46331082  0.92847657  0.41125966
   0.19277146  0.33395632  0.00315760
   0.31742398  0.52706753  0.79357892
   0.22326085  0.38190142  0.59264057
   0.05780352  0.15069593  0.20615038
   0.69522753  0.40926435  0.60454803
   0.57695106  0.19723981  0.79287814
   0.54196249  0.06083975  0.61344763
   0.32559844  0.65354555  0.00064572
   0.22719018  0.47529451  0.19682611
Nb - Mo - Ta - Ti - V SQS               
           1
    -3.158344   -3.115825   -3.191125
     1.501121    1.522569   -7.866111
     7.939446   -7.886561   -1.540811
   Nb   Mo   Ta   Ti   V 
   6   6   6   6   5
Direct configuration=    16
   0.95362872  0.93406481  0.40054819
   0.63253457  0.26533051  0.40299840
   0.49502206 -0.00003330 -0.00772433
  -0.01031890  0.00729265  0.00022547
   0.04837425  0.24628100  0.79502535
   0.03403964  0.07164734  0.60243323
   0.90252296  0.79604759  0.20125873
   0.80722886  0.59131469  0.39997921
   0.73176311  0.46785774  0.19715668
   0.65675542  0.35077799 -0.00456337
   0.36676081  0.72603944  0.60047946
   0.12888060  0.27236932  0.40117869
   0.83425519  0.65850683 -0.00607634
   0.94268385  0.87198698  0.80070559
   0.56304062  0.13359954  0.19748095
   0.40619355  0.79238662  0.19541784
   0.45260258  0.84712922  0.79735470
   0.30316847  0.60063511  0.40317797
   0.86166644  0.71539716  0.60827168
   0.46321028  0.92850262  0.41133314
   0.19252771  0.33406352  0.00303059
   0.31879957  0.52700177  0.79353353
   0.22356105  0.38176612  0.59268983
   0.05773695  0.15076151  0.20609042
   0.69546326  0.40900285  0.60433380
   0.57672093  0.19710479  0.79293448
   0.54184174  0.06070702  0.61340228
   0.32550445  0.65376701  0.00058719
   0.22716460  0.47535819  0.19673664
Nb - Mo - Ta - Ti - V SQS               
           1
    -3.161198   -3.117753   -3.193806
     1.503712    1.524971   -7.875366
     7.939272   -7.883768   -1.542323
   Nb   Mo   Ta   Ti   V 
   6   6   6   6   5
Direct configuration=    17
   0.95364357  0.93376599  0.40076047
   0.63264124  0.26522159  0.40291164
   0.49459196  0.00025220 -0.00762514
  -0.01077890  0.00728520  0.00036596
   0.04603148  0.24819765  0.79476217
   0.03345496  0.07133045  0.60264185
   0.90212037  0.79579445  0.20124165
   0.80750226  0.59117328  0.40003681
   0.73212286  0.46732056  0.19701095
   0.65651025  0.35035690 -0.00396259
   0.36730236  0.72613839  0.60048758
   0.12899406  0.27212994  0.40120910
   0.83370038  0.65937251 -0.00611267
   0.94341134  0.87082394  0.80093823
   0.56246169  0.13438974  0.19758693
   0.40626780  0.79247116  0.19535225
   0.45169432  0.84827685  0.79718700
   0.30354026  0.60066516  0.40301422
   0.86250090  0.71440388  0.60890425
   0.46290877  0.92858070  0.41155360
   0.19179665  0.33438504  0.00264953
   0.32292523  0.52680456  0.79339744
   0.22446139  0.38136038  0.59283763
   0.05753729  0.15095817  0.20591054
   0.69617015  0.40821874  0.60369109
   0.57603070  0.19669989  0.79310350
   0.54147955  0.06030900  0.61326621
   0.32522256  0.65443112  0.00041159
   0.22708789  0.47554921  0.19646818
Nb - Mo - Ta - Ti - V SQS               
           1
    -3.166906   -3.121608   -3.199167
     1.508894    1.529775   -7.893877
     7.938922   -7.878182   -1.545347
   Nb   Mo   Ta   Ti   V 
   6   6   6   6   5
Direct configuration=    18
   0.95367323  0.93316896  0.40118513
   0.63285433  0.26500406  0.40273810
   0.49373259  0.00082246 -0.00742678
  -0.01169812  0.00727025  0.00064694
   0.04135019  0.25202651  0.79423540
   0.03228650  0.07069739  0.60305911
   0.90131571  0.79528883  0.20120744
   0.80804860  0.59089076  0.40015206
   0.73284153  0.46624762  0.19671948
   0.65602045  0.34951540 -0.00276081
   0.36838466  0.72633599  0.60050389
   0.12922074  0.27165176  0.40126996
   0.83259196  0.66110175 -0.00618541
   0.94486487  0.86850055  0.80140372
   0.56130509  0.13596814  0.19779885
   0.40641617  0.79264005  0.19522105
   0.44987955  0.85056942  0.79685141
   0.30428321  0.60072528  0.40268671
   0.86416847  0.71241933  0.61016976
   0.46230634  0.92873654  0.41199455
   0.19033558  0.33502758  0.00188719
   0.33116998  0.52641043  0.79312569
   0.22626061  0.38054974  0.59313341
   0.05713827  0.15135114  0.20555068
   0.69758220  0.40665286  0.60240553
   0.57465125  0.19589103  0.79344153
   0.54075551  0.05951407  0.61299398
   0.32465939  0.65575783  0.00006026
   0.22693452  0.47593094  0.19593117
Nb - Mo - Ta - Ti - V SQS               
           1
    -3.168265   -3.121881   -3.199942
     1.509142    1.528958   -7.894467
     7.940377   -7.876654   -1.545954
   Nb   Mo   Ta   Ti   V 
   6   6   6   6   5
Direct configuration=    19
   0.95364474  0.93296330  0.40121882
   0.63283928  0.26488917  0.40273690
   0.49330421  0.00115576 -0.00723441
  -0.01208071  0.00741269  0.00059308
   0.03985155  0.25304932  0.79417048
   0.03190913  0.07048049  0.60320589
   0.90130461  0.79532270  0.20129940
   0.80845673  0.59086364  0.40011786
   0.73277415  0.46653507  0.19658171
   0.65604343  0.34915184 -0.00252534
   0.36868447  0.72630193  0.60048549
   0.12931085  0.27147238  0.40124864
   0.83229814  0.66119084 -0.00613998
   0.94520657  0.86800530  0.80144249
   0.56098199  0.13601953  0.19777227
   0.40617578  0.79266063  0.19523625
   0.44937478  0.85144569  0.79671693
   0.30441710  0.60058368  0.40263421
   0.86460226  0.71174898  0.61056376
   0.46220791  0.92871740  0.41205132
   0.18974881  0.33547675  0.00165548
   0.33455914  0.52624252  0.79317417
   0.22659194  0.38044668  0.59319280
   0.05706941  0.15132232  0.20552073
   0.69812692  0.40610025  0.60195005
   0.57417633  0.19574943  0.79350080
   0.54062246  0.05933050  0.61293934
   0.32439197  0.65600618  0.00000250
   0.22673938  0.47602169  0.19588840
Nb - Mo - Ta - Ti - V SQS               
           1
    -3.172342   -3.122702   -3.202269
     1.509888    1.526506   -7.896239
     7.944742   -7.872070   -1.547775
   Nb   Mo   Ta   Ti   V 
   6   6   6   6   5
Direct configuration=    20
   0.95355938  0.93234631  0.40131992
   0.63279417  0.26454449  0.40273330
   0.49201953  0.00215551 -0.00665746
  -0.01322827  0.00784006  0.00043138
   0.03535643  0.25611774  0.79397522
   0.03077753  0.06982971  0.60364617
   0.90127142  0.79542426  0.20157527
   0.80968078  0.59078231  0.40001534
   0.73257184  0.46739749  0.19616831
   0.65611273  0.34806099 -0.00181886
   0.36958367  0.72619976  0.60043035
   0.12958116  0.27093426  0.40118474
   0.83141693  0.66145806 -0.00600377
   0.94623160  0.86651954  0.80155898
   0.56001290  0.13617375  0.19769245
   0.40545480  0.79272236  0.19528179
   0.44786046  0.85407456  0.79631320
   0.30481868  0.60015893  0.40247677
   0.86590392  0.70973770  0.61174600
   0.46191276  0.92865994  0.41222159
   0.18798857  0.33682438  0.00096012
   0.34472407  0.52573872  0.79332035
   0.22758578  0.38013748  0.59337105
   0.05686285  0.15123591  0.20543084
   0.69976032  0.40444279  0.60058382
   0.57275207  0.19532459  0.79367853
   0.54022344  0.05877985  0.61277543
   0.32358978  0.65675127 -0.00017086
   0.22615404  0.47629396  0.19576003
Nb - Mo - Ta - Ti - V SQS               
           1
    -3.180497   -3.124344   -3.206923
     1.511378    1.521603   -7.899782
     7.953472   -7.862903   -1.551417
   Nb   Mo   Ta   Ti   V 
   6   6   6   6   5
Direct configuration=    21
   0.95338939  0.93111227  0.40152235
   0.63270421  0.26385518  0.40272623
   0.48945285  0.00415415 -0.00550446
  -0.01552220  0.00869500  0.00010734
   0.02637094  0.26225462  0.79358161
   0.02851746  0.06852768  0.60452656
   0.90120563  0.79562700  0.20212697
   0.81212678  0.59061975  0.39981081
   0.73216611  0.46912280  0.19534108
   0.65625342  0.34587847 -0.00040539
   0.37138060  0.72599548  0.60032049
   0.13012154  0.26985817  0.40105726
   0.82965604  0.66199232 -0.00573182
   0.94828120  0.86354801  0.80179298
   0.55807598  0.13648229  0.19753235
   0.40401403  0.79284578  0.19537256
   0.44483171  0.85933258  0.79550405
   0.30562112  0.59930968  0.40216222
   0.86850901  0.70571374  0.61411184
   0.46132334  0.92854481  0.41256206
   0.18446850  0.33952047 -0.00043187
   0.36503861  0.52473063  0.79361706
   0.22957247  0.37951882  0.59372809
   0.05644993  0.15106321  0.20525102
   0.70302256  0.40112985  0.59785264
   0.56990643  0.19447478  0.79403361
   0.53942599  0.05767884  0.61244766
   0.32198583  0.65824162 -0.00051823
   0.22498383  0.47683867  0.19550294
Nb - Mo - Ta - Ti - V SQS               
           1
    -3.175710   -3.118110   -3.200308
     1.505772    1.514826   -7.876536
     7.941217   -7.847779   -1.547384
   Nb   Mo   Ta   Ti   V 
   6   6   6   6   5
Direct configuration=    22
   0.95350118  0.93070096  0.40160616
   0.63281418  0.26338632  0.40247506
   0.48851527  0.00465746 -0.00526635
  -0.01625965  0.00912369 -0.00032000
   0.02379295  0.26388725  0.79363491
   0.02831572  0.06810720  0.60446094
   0.90123671  0.79603402  0.20225544
   0.81242042  0.59028110  0.39968383
   0.73161831  0.47003403  0.19534521
   0.65680443  0.34495826 -0.00032915
   0.37170071  0.72555901  0.60019633
   0.12993094  0.26969201  0.40096917
   0.82837563  0.66178362 -0.00580363
   0.94835846  0.86293360  0.80191634
   0.55801668  0.13588616  0.19763331
   0.40327204  0.79301869  0.19549204
   0.44424156  0.86131875  0.79557783
   0.30597384  0.59881684  0.40235598
   0.86875520  0.70444352  0.61488625
   0.46122563  0.92835450  0.41243431
   0.18326709  0.34066021 -0.00085232
   0.37371291  0.52425332  0.79373924
   0.22939014  0.37967484  0.59393464
   0.05588802  0.15113308  0.20519471
   0.70427697  0.40016283  0.59720670
   0.56926029  0.19462076  0.79394994
   0.53943205  0.05760709  0.61232357
   0.32111687  0.65860453 -0.00026495
   0.22437874  0.47697302  0.19556449
Nb - Mo - Ta - Ti - V SQS               
           1
    -3.175941   -3.118410   -3.200626
     1.506042    1.515152   -7.877656
     7.941807   -7.848507   -1.547578
   Nb   Mo   Ta   Ti   V 
   6   6   6   6   5
Direct configuration=    23
   0.95349578  0.93072083  0.40160212
   0.63280887  0.26340896  0.40248717
   0.48856050  0.00463315 -0.00527783
  -0.01622406  0.00910299 -0.00029938