  29  29   0   0
  0.1679057E+02  0.5525242E-09  0.8287863E-09  0.1139058E-08  0.5000000E-15
  1.000000000000000E-004
  CAR 
 SQS with 1 vacancy for VFE and VRV      
     12.01954406    -50.22092634  301      6.77412365      1.00000000
    -50.221  0.0000E+00  0.0000E+00
    -50.013  0.0000E+00  0.0000E+00
    -49.806  0.0000E+00  0.0000E+00
    -49.599  0.0000E+00  0.0000E+00
    -49.391  0.0000E+00  0.0000E+00
    -49.184 -0.6264E-35 -0.1300E-35
    -48.976 -0.2250E-27 -0.4668E-28
    -48.769 -0.9234E-21 -0.1916E-21
    -48.561 -0.4201E-15 -0.8715E-16
    -48.354 -0.2172E-10 -0.4506E-11
    -48.146 -0.1243E-06 -0.2580E-07
    -47.939 -0.7597E-04 -0.1579E-04
    -47.731 -0.4491E-02 -0.9476E-03
    -47.524 -0.2926E-02 -0.1555E-02
    -47.316  0.2680E+00  0.5406E-01
    -47.109  0.5901E+00  0.1765E+00
    -46.901  0.3107E+00  0.2409E+00
    -46.694  0.1138E-02  0.2412E+00
    -46.486 -0.5496E-02  0.2400E+00
    -46.279 -0.9654E-04  0.2400E+00
    -46.072 -0.1655E-06  0.2400E+00
    -45.864 -0.3109E-10  0.2400E+00
    -45.657 -0.6422E-15  0.2400E+00
    -45.449  0.0000E+00  0.2400E+00
    -45.242  0.0000E+00  0.2400E+00
    -45.034  0.0000E+00  0.2400E+00
    -44.827  0.0000E+00  0.2400E+00
    -44.619  0.0000E+00  0.2400E+00
    -44.412  0.0000E+00  0.2400E+00
    -44.204  0.0000E+00  0.2400E+00
    -43.997  0.0000E+00  0.2400E+00
    -43.789  0.0000E+00  0.2400E+00
    -43.582  0.0000E+00  0.2400E+00
    -43.374  0.0000E+00  0.2400E+00
    -43.167  0.0000E+00  0.2400E+00
    -42.960  0.0000E+00  0.2400E+00
    -42.752  0.0000E+00  0.2400E+00
    -42.545  0.0000E+00  0.2400E+00
    -42.337  0.0000E+00  0.2400E+00
    -42.130  0.0000E+00  0.2400E+00
    -41.922  0.0000E+00  0.2400E+00
    -41.715  0.0000E+00  0.2400E+00
    -41.507  0.0000E+00  0.2400E+00
    -41.300  0.0000E+00  0.2400E+00
    -41.092  0.0000E+00  0.2400E+00
    -40.885  0.0000E+00  0.2400E+00
    -40.677  0.0000E+00  0.2400E+00
    -40.470  0.0000E+00  0.2400E+00
    -40.262  0.0000E+00  0.2400E+00
    -40.055  0.0000E+00  0.2400E+00
    -39.848  0.0000E+00  0.2400E+00
    -39.640  0.0000E+00  0.2400E+00
    -39.433  0.0000E+00  0.2400E+00
    -39.225  0.0000E+00  0.2400E+00
    -39.018  0.0000E+00  0.2400E+00
    -38.810  0.0000E+00  0.2400E+00
    -38.603  0.0000E+00  0.2400E+00
    -38.395  0.0000E+00  0.2400E+00
    -38.188  0.0000E+00  0.2400E+00
    -37.980  0.0000E+00  0.2400E+00
    -37.773  0.0000E+00  0.2400E+00
    -37.565  0.0000E+00  0.2400E+00
    -37.358  0.0000E+00  0.2400E+00
    -37.150  0.0000E+00  0.2400E+00
    -36.943  0.0000E+00  0.2400E+00
    -36.735  0.0000E+00  0.2400E+00
    -36.528  0.0000E+00  0.2400E+00
    -36.321  0.0000E+00  0.2400E+00
    -36.113  0.0000E+00  0.2400E+00
    -35.906  0.0000E+00  0.2400E+00
    -35.698  0.0000E+00  0.2400E+00
    -35.491  0.0000E+00  0.2400E+00
    -35.283  0.0000E+00  0.2400E+00
    -35.076  0.0000E+00  0.2400E+00
    -34.868  0.0000E+00  0.2400E+00
    -34.661  0.0000E+00  0.2400E+00
    -34.453  0.0000E+00  0.2400E+00
    -34.246  0.0000E+00  0.2400E+00
    -34.038  0.0000E+00  0.2400E+00
    -33.831  0.0000E+00  0.2400E+00
    -33.623  0.0000E+00  0.2400E+00
    -33.416  0.0000E+00  0.2400E+00
    -33.209  0.0000E+00  0.2400E+00
    -33.001  0.0000E+00  0.2400E+00
    -32.794  0.0000E+00  0.2400E+00
    -32.586  0.0000E+00  0.2400E+00
    -32.379  0.0000E+00  0.2400E+00
    -32.171  0.0000E+00  0.2400E+00
    -31.964  0.0000E+00  0.2400E+00
    -31.756  0.0000E+00  0.2400E+00
    -31.549  0.0000E+00  0.2400E+00
    -31.341  0.0000E+00  0.2400E+00
    -31.134  0.0000E+00  0.2400E+00
    -30.926  0.0000E+00  0.2400E+00
    -30.719  0.0000E+00  0.2400E+00
    -30.511  0.0000E+00  0.2400E+00
    -30.304  0.0000E+00  0.2400E+00
    -30.097  0.0000E+00  0.2400E+00
    -29.889  0.0000E+00  0.2400E+00
    -29.682  0.0000E+00  0.2400E+00
    -29.474  0.0000E+00  0.2400E+00
    -29.267  0.0000E+00  0.2400E+00
    -29.059  0.0000E+00  0.2400E+00
    -28.852  0.0000E+00  0.2400E+00
    -28.644  0.0000E+00  0.2400E+00
    -28.437  0.0000E+00  0.2400E+00
    -28.229  0.0000E+00  0.2400E+00
    -28.022  0.0000E+00  0.2400E+00
    -27.814  0.0000E+00  0.2400E+00
    -27.607  0.0000E+00  0.2400E+00
    -27.399  0.0000E+00  0.2400E+00
    -27.192  0.0000E+00  0.2400E+00
    -26.984  0.0000E+00  0.2400E+00
    -26.777  0.0000E+00  0.2400E+00
    -26.570  0.0000E+00  0.2400E+00
    -26.362  0.0000E+00  0.2400E+00
    -26.155  0.0000E+00  0.2400E+00
    -25.947  0.0000E+00  0.2400E+00
    -25.740 -0.2536E-33  0.2400E+00
    -25.532 -0.4855E-26  0.2400E+00
    -25.325 -0.1062E-19  0.2400E+00
    -25.117 -0.2580E-14  0.2400E+00
    -24.910 -0.7319E-10  0.2400E+00
    -24.702 -0.2408E-06  0.2400E+00
    -24.495 -0.9369E-04  0.2400E+00
    -24.287 -0.3962E-02  0.2392E+00
    -24.080  0.6958E-02  0.2406E+00
    -23.872  0.1834E+00  0.2787E+00
    -23.665  0.3658E+00  0.3546E+00
    -23.458  0.7946E+00  0.5194E+00
    -23.250  0.9997E+00  0.7268E+00
    -23.043  0.7343E+00  0.8792E+00
    -22.835  0.3141E+00  0.9443E+00
    -22.628  0.6882E-01  0.9586E+00
    -22.420  0.8997E-02  0.9605E+00
    -22.213 -0.2135E-02  0.9600E+00
    -22.005 -0.1119E-03  0.9600E+00
    -21.798 -0.4818E-06  0.9600E+00
    -21.590 -0.2148E-09  0.9600E+00
    -21.383 -0.1043E-13  0.9600E+00
    -21.175  0.0000E+00  0.9600E+00
    -20.968  0.0000E+00  0.9600E+00
    -20.760  0.0000E+00  0.9600E+00
    -20.553  0.0000E+00  0.9600E+00
    -20.346  0.0000E+00  0.9600E+00
    -20.138  0.0000E+00  0.9600E+00
    -19.931  0.0000E+00  0.9600E+00
    -19.723  0.0000E+00  0.9600E+00
    -19.516  0.0000E+00  0.9600E+00
    -19.308  0.0000E+00  0.9600E+00
    -19.101  0.0000E+00  0.9600E+00
    -18.893  0.0000E+00  0.9600E+00
    -18.686  0.0000E+00  0.9600E+00
    -18.478  0.0000E+00  0.9600E+00
    -18.271  0.0000E+00  0.9600E+00
    -18.063  0.0000E+00  0.9600E+00
    -17.856  0.0000E+00  0.9600E+00
    -17.648  0.0000E+00  0.9600E+00
    -17.441  0.0000E+00  0.9600E+00
    -17.233  0.0000E+00  0.9600E+00
    -17.026  0.0000E+00  0.9600E+00
    -16.819  0.0000E+00  0.9600E+00
    -16.611  0.0000E+00  0.9600E+00
    -16.404  0.0000E+00  0.9600E+00
    -16.196  0.0000E+00  0.9600E+00
    -15.989  0.0000E+00  0.9600E+00
    -15.781  0.0000E+00  0.9600E+00
    -15.574  0.0000E+00  0.9600E+00
    -15.366  0.0000E+00  0.9600E+00
    -15.159  0.0000E+00  0.9600E+00
    -14.951  0.0000E+00  0.9600E+00
    -14.744  0.0000E+00  0.9600E+00
    -14.536  0.0000E+00  0.9600E+00
    -14.329  0.0000E+00  0.9600E+00
    -14.121  0.0000E+00  0.9600E+00
    -13.914  0.0000E+00  0.9600E+00
    -13.707  0.0000E+00  0.9600E+00
    -13.499  0.0000E+00  0.9600E+00
    -13.292  0.0000E+00  0.9600E+00
    -13.084  0.0000E+00  0.9600E+00
    -12.877  0.0000E+00  0.9600E+00
    -12.669  0.0000E+00  0.9600E+00
    -12.462  0.0000E+00  0.9600E+00
    -12.254  0.0000E+00  0.9600E+00
    -12.047  0.0000E+00  0.9600E+00
    -11.839  0.0000E+00  0.9600E+00
    -11.632  0.0000E+00  0.9600E+00
    -11.424  0.0000E+00  0.9600E+00
    -11.217  0.0000E+00  0.9600E+00
    -11.009  0.0000E+00  0.9600E+00
    -10.802  0.0000E+00  0.9600E+00
    -10.594  0.0000E+00  0.9600E+00
    -10.387  0.0000E+00  0.9600E+00
    -10.180  0.0000E+00  0.9600E+00
     -9.972  0.0000E+00  0.9600E+00
     -9.765  0.0000E+00  0.9600E+00
     -9.557  0.0000E+00  0.9600E+00
     -9.350  0.0000E+00  0.9600E+00
     -9.142  0.0000E+00  0.9600E+00
     -8.935  0.0000E+00  0.9600E+00
     -8.727  0.0000E+00  0.9600E+00
     -8.520  0.0000E+00  0.9600E+00
     -8.312  0.0000E+00  0.9600E+00
     -8.105  0.0000E+00  0.9600E+00
     -7.897  0.0000E+00  0.9600E+00
     -7.690  0.0000E+00  0.9600E+00
     -7.482  0.0000E+00  0.9600E+00
     -7.275  0.0000E+00  0.9600E+00
     -7.068  0.0000E+00  0.9600E+00
     -6.860  0.0000E+00  0.9600E+00
     -6.653  0.0000E+00  0.9600E+00
     -6.445  0.0000E+00  0.9600E+00
     -6.238  0.0000E+00  0.9600E+00
     -6.030  0.0000E+00  0.9600E+00
     -5.823  0.0000E+00  0.9600E+00
     -5.615  0.0000E+00  0.9600E+00
     -5.408  0.0000E+00  0.9600E+00
     -5.200  0.0000E+00  0.9600E+00
     -4.993  0.0000E+00  0.9600E+00
     -4.785  0.0000E+00  0.9600E+00
     -4.578  0.0000E+00  0.9600E+00
     -4.370  0.0000E+00  0.9600E+00
     -4.163  0.0000E+00  0.9600E+00
     -3.956  0.0000E+00  0.9600E+00
     -3.748  0.0000E+00  0.9600E+00
     -3.541  0.0000E+00  0.9600E+00
     -3.333  0.0000E+00  0.9600E+00
     -3.126  0.0000E+00  0.9600E+00
     -2.918  0.0000E+00  0.9600E+00
     -2.711  0.0000E+00  0.9600E+00
     -2.503  0.0000E+00  0.9600E+00
     -2.296 -0.7297E-33  0.9600E+00
     -2.088 -0.8296E-26  0.9600E+00
     -1.881 -0.1084E-19  0.9600E+00
     -1.673 -0.1570E-14  0.9600E+00
     -1.466 -0.2666E-10  0.9600E+00
     -1.258 -0.5148E-07  0.9600E+00
     -1.051 -0.1106E-04  0.9600E+00
     -0.843 -0.2232E-03  0.9600E+00
     -0.636  0.8597E-03  0.9601E+00
     -0.429  0.9563E-02  0.9621E+00
     -0.221  0.2298E-01  0.9669E+00
     -0.014  0.3575E-01  0.9743E+00
      0.194  0.3218E-01  0.9810E+00
      0.401  0.3079E-01  0.9874E+00
      0.609  0.6003E-01  0.9998E+00
      0.816  0.6451E-01  0.1013E+01
      1.024  0.5351E-01  0.1024E+01
      1.231  0.6373E-01  0.1038E+01
      1.439  0.9315E-01  0.1057E+01
      1.646  0.7275E-01  0.1072E+01
      1.854  0.9248E-01  0.1091E+01
      2.061  0.1437E+00  0.1121E+01
      2.269  0.1994E+00  0.1162E+01
      2.476  0.2980E+00  0.1224E+01
      2.683  0.3765E+00  0.1302E+01
      2.891  0.4344E+00  0.1392E+01
      3.098  0.5498E+00  0.1506E+01
      3.306  0.5611E+00  0.1623E+01
      3.513  0.5624E+00  0.1740E+01
      3.721  0.5949E+00  0.1863E+01
      3.928  0.5957E+00  0.1987E+01
      4.136  0.5306E+00  0.2097E+01
      4.343  0.4644E+00  0.2193E+01
      4.551  0.5301E+00  0.2303E+01
      4.758  0.7237E+00  0.2453E+01
      4.966  0.8067E+00  0.2620E+01
      5.173  0.8019E+00  0.2787E+01
      5.381  0.7425E+00  0.2941E+01
      5.588  0.6836E+00  0.3083E+01
      5.795  0.7196E+00  0.3232E+01
      6.003  0.7766E+00  0.3393E+01
      6.210  0.7860E+00  0.3556E+01
      6.418  0.7717E+00  0.3716E+01
      6.625  0.7012E+00  0.3862E+01
      6.833  0.6555E+00  0.3998E+01
      7.040  0.5694E+00  0.4116E+01
      7.248  0.4224E+00  0.4204E+01
      7.455  0.3168E+00  0.4269E+01
      7.663  0.3248E+00  0.4337E+01
      7.870  0.3532E+00  0.4410E+01
      8.078  0.3650E+00  0.4486E+01
      8.285  0.4161E+00  0.4572E+01
      8.493  0.4422E+00  0.4664E+01
      8.700  0.3335E+00  0.4733E+01
      8.908  0.2160E+00  0.4778E+01
      9.115  0.9649E-01  0.4798E+01
      9.322  0.1289E-01  0.4800E+01
      9.530 -0.1720E-02  0.4800E+01
      9.737 -0.2237E-03  0.4800E+01
      9.945 -0.2581E-05  0.4800E+01
     10.152 -0.3378E-08  0.4800E+01
     10.360 -0.5103E-12  0.4800E+01
     10.567 -0.9590E-17  0.4800E+01
     10.775  0.0000E+00  0.4800E+01
     10.982  0.0000E+00  0.4800E+01
     11.190  0.0000E+00  0.4800E+01
     11.397  0.0000E+00  0.4800E+01
     11.605  0.0000E+00  0.4800E+01
     11.812  0.0000E+00  0.4800E+01
     12.020  0.0000E+00  0.4800E+01
