   29   29   50    1
  0.1679057E+02  0.5525242E-09  0.8287863E-09  0.1139058E-08  0.5000000E-15
  1.000000000000000E-004
  CAR 
 SQS with 1 vacancy for VFE and VRV      
    198     63    120
 
  0.0000000E+00  0.0000000E+00  0.0000000E+00  0.8000000E-02
    1      -47.391814   1.000000
    2      -47.284425   1.000000
    3      -47.260430   1.000000
    4      -47.174293   1.000000
    5      -47.100419   1.000000
    6      -47.014934   1.000000
    7      -24.007843   1.000000
    8      -23.897336   1.000000
    9      -23.708353   1.000000
   10      -23.655451   1.000000
   11      -23.557602   1.000000
   12      -23.527204   1.000000
   13      -23.447088   1.000000
   14      -23.426587   1.000000
   15      -23.404968   1.000000
   16      -23.373627   1.000000
   17      -23.342964   1.000000
   18      -23.263813   1.000000
   19      -23.210194   1.000000
   20      -23.189709   1.000000
   21      -23.110772   1.000000
   22      -23.048581   1.000000
   23      -22.972698   1.000000
   24      -22.673444   1.000000
   25       -0.614096   1.000000
   26        0.761692   1.000000
   27        1.089510   1.000000
   28        1.932880   1.000000
   29        2.010127   1.000000
   30        2.069155   1.000000
   31        2.260030   1.000000
   32        2.333395   1.000000
   33        2.475540   1.000000
   34        2.526151   1.000000
   35        2.608228   1.000000
   36        2.713331   1.000000
   37        2.719170   1.000000
   38        2.809783   1.000000
   39        2.915460   1.000000
   40        2.932341   1.000000
   41        3.113747   1.000000
   42        3.137155   1.000000
   43        3.201411   1.000000
   44        3.339025   1.000000
   45        3.414171   1.000000
   46        3.447434   1.000000
   47        3.536732   1.000000
   48        3.595395   1.000000
   49        3.679253   1.000000
   50        3.692200   1.000000
   51        3.823995   1.000000
   52        3.866908   1.000000
   53        3.928151   1.000000
   54        3.991421   1.000000
   55        4.074257   1.000000
   56        4.112234   1.000000
   57        4.281575   1.000000
   58        4.452181   1.000000
   59        4.486493   1.000000
   60        4.544867   1.000000
   61        4.592500   1.000000
   62        4.687687   1.000000
   63        4.720741   1.000000
   64        4.752398   1.000000
   65        4.780958   1.000000
   66        4.794994   1.000000
   67        4.896742   1.000000
   68        4.916029   1.000000
   69        5.002834   1.000000
   70        5.034896   1.000000
   71        5.066819   1.000000
   72        5.178743   1.000000
   73        5.247856   1.000000
   74        5.300406   1.000000
   75        5.382106   1.000000
   76        5.455252   1.000000
   77        5.572261   1.000000
   78        5.639612   1.000000
   79        5.668478   1.000000
   80        5.737484   1.000000
   81        5.830058   1.000000
   82        5.959844   1.000000
   83        6.003672   1.000000
   84        6.060698   1.000003
   85        6.090600   1.000007
   86        6.166310   1.000075
   87        6.209618   1.000243
   88        6.251769   1.000693
   89        6.304051   1.002201
   90        6.365711   1.006962
   91        6.445766   1.021146
   92        6.567937   1.028047
   93        6.644770   0.939899
   94        6.677997   0.859276
   95        6.761808   0.552002
   96        6.792542   0.422431
   97        6.913329   0.041521
   98        6.923317   0.025096
   99        6.934880   0.008991
  100        6.999625  -0.033801
  101        7.051878  -0.032175
  102        7.100941  -0.021497
  103        7.282256  -0.000964
  104        7.492752  -0.000002
  105        7.659223  -0.000000
  106        7.674138  -0.000000
  107        7.839733  -0.000000
  108        7.928530  -0.000000
  109        8.032847  -0.000000
  110        8.438762  -0.000000
  111        8.461349  -0.000000
  112        8.567633  -0.000000
  113        8.642758  -0.000000
  114        8.719229  -0.000000
  115        8.876478  -0.000000
  116        8.890629  -0.000000
  117        8.971843  -0.000000
  118        9.021451  -0.000000
  119        9.057693  -0.000000
  120        9.122803  -0.000000
 
  0.2000000E+00 -0.1387779E-16  0.0000000E+00  0.1600000E-01
    1      -47.391198   1.000000
    2      -47.276270   1.000000
    3      -47.259767   1.000000
    4      -47.172882   1.000000
    5      -47.100360   1.000000
    6      -47.024677   1.000000
    7      -23.924849   1.000000
    8      -23.872337   1.000000
    9      -23.704515   1.000000
   10      -23.650024   1.000000
   11      -23.560435   1.000000
   12      -23.533002   1.000000
   13      -23.440767   1.000000
   14      -23.431372   1.000000
   15      -23.404770   1.000000
   16      -23.382719   1.000000
   17      -23.343028   1.000000
   18      -23.267011   1.000000
   19      -23.213940   1.000000
   20      -23.197608   1.000000
   21      -23.116795   1.000000
   22      -23.052236   1.000000
   23      -22.974769   1.000000
   24      -22.801885   1.000000
   25       -0.293813   1.000000
   26        1.026146   1.000000
   27        1.358374   1.000000
   28        2.053168   1.000000
   29        2.197510   1.000000
   30        2.312378   1.000000
   31        2.428931   1.000000
   32        2.560028   1.000000
   33        2.599830   1.000000
   34        2.697445   1.000000
   35        2.796590   1.000000
   36        2.884378   1.000000
   37        2.921588   1.000000
   38        3.024339   1.000000
   39        3.075158   1.000000
   40        3.095649   1.000000
   41        3.232786   1.000000
   42        3.280829   1.000000
   43        3.319061   1.000000
   44        3.355925   1.000000
   45        3.501298   1.000000
   46        3.577552   1.000000
   47        3.691403   1.000000
   48        3.724947   1.000000
   49        3.769783   1.000000
   50        3.872474   1.000000
   51        3.922186   1.000000
   52        3.988445   1.000000
   53        4.040247   1.000000
   54        4.135014   1.000000
   55        4.205327   1.000000
   56        4.243927   1.000000
   57        4.355858   1.000000
   58        4.474600   1.000000
   59        4.593541   1.000000
   60        4.626178   1.000000
   61        4.658425   1.000000
   62        4.729664   1.000000
   63        4.764657   1.000000
   64        4.849508   1.000000
   65        4.881112   1.000000
   66        4.968569   1.000000
   67        4.983046   1.000000
   68        5.023677   1.000000
   69        5.097504   1.000000
   70        5.170403   1.000000
   71        5.196505   1.000000
   72        5.247721   1.000000
   73        5.274954   1.000000
   74        5.332393   1.000000
   75        5.418642   1.000000
   76        5.464745   1.000000
   77        5.511203   1.000000
   78        5.594600   1.000000
   79        5.638389   1.000000
   80        5.702570   1.000000
   81        5.733165   1.000000
   82        5.864191   1.000000
   83        5.881694   1.000000
   84        5.967843   1.000000
   85        6.033550   1.000001
   86        6.084203   1.000006
   87        6.128721   1.000025
   88        6.167497   1.000078
   89        6.273774   1.001149
   90        6.303466   1.002175
   91        6.344479   1.004811
   92        6.409585   1.013574
   93        6.452515   1.022694
   94        6.534369   1.035350
   95        6.603382   1.002541
   96        6.645333   0.938764
   97        6.729459   0.683868
   98        6.800456   0.389644
   99        6.836125   0.251105
  100        6.905343   0.056399
  101        6.980173  -0.027988
  102        7.042607  -0.033649
  103        7.105170  -0.020536
  104        7.174334  -0.007967
  105        7.369738  -0.000106
  106        7.426786  -0.000020
  107        7.530910  -0.000001
  108        7.705752  -0.000000
  109        7.761820  -0.000000
  110        7.890161  -0.000000
  111        7.945188  -0.000000
  112        8.116718  -0.000000
  113        8.193267  -0.000000
  114        8.294231  -0.000000
  115        8.330818  -0.000000
  116        8.409927  -0.000000
  117        8.480992  -0.000000
  118        8.528695  -0.000000
  119        8.613060  -0.000000
  120        8.763656  -0.000000
 
  0.4000000E+00 -0.2775558E-16  0.0000000E+00  0.1600000E-01
    1      -47.390206   1.000000
    2      -47.262705   1.000000
    3      -47.257918   1.000000
    4      -47.169856   1.000000
    5      -47.100265   1.000000
    6      -47.042329   1.000000
    7      -23.910399   1.000000
    8      -23.710596   1.000000
    9      -23.673614   1.000000
   10      -23.570174   1.000000
   11      -23.559275   1.000000
   12      -23.536058   1.000000
   13      -23.440919   1.000000
   14      -23.431967   1.000000
   15      -23.401686   1.000000
   16      -23.393204   1.000000
   17      -23.342342   1.000000
   18      -23.272098   1.000000
   19      -23.228188   1.000000
   20      -23.209414   1.000000
   21      -23.153949   1.000000
   22      -23.101808   1.000000
   23      -23.050407   1.000000
   24      -22.972787   1.000000
   25        0.532382   1.000000
   26        1.452382   1.000000
   27        1.976517   1.000000
   28        2.107585   1.000000
   29        2.401652   1.000000
   30        2.528340   1.000000
   31        2.610523   1.000000
   32        2.812395   1.000000
   33        2.901274   1.000000
   34        2.987765   1.000000
   35        3.131001   1.000000
   36        3.180475   1.000000
   37        3.204884   1.000000
   38        3.325777   1.000000
   39        3.402327   1.000000
   40        3.473923   1.000000
   41        3.507144   1.000000
   42        3.564817   1.000000
   43        3.618666   1.000000
   44        3.637576   1.000000
   45        3.709826   1.000000
   46        3.800754   1.000000
   47        3.859745   1.000000
   48        3.982717   1.000000
   49        4.015784   1.000000
   50        4.068025   1.000000
   51        4.109251   1.000000
   52        4.206727   1.000000
   53        4.287685   1.000000
   54        4.365090   1.000000
   55        4.443477   1.000000
   56        4.550527   1.000000
   57        4.585581   1.000000
   58        4.612373   1.000000
   59        4.680139   1.000000
   60        4.728664   1.000000
   61        4.769137   1.000000
   62        4.807080   1.000000
   63        4.853482   1.000000
   64        4.881585   1.000000
   65        4.926359   1.000000
   66        4.974742   1.000000
   67        5.035139   1.000000
   68        5.073987   1.000000
   69        5.133779   1.000000
   70        5.187248   1.000000
   71        5.232762   1.000000
   72        5.281884   1.000000
   73        5.342239   1.000000
   74        5.384068   1.000000
   75        5.437885   1.000000
   76        5.483214   1.000000
   77        5.548752   1.000000
   78        5.609838   1.000000
   79        5.673038   1.000000
   80        5.731017   1.000000
   81        5.772280   1.000000
   82        5.856929   1.000000
   83        5.881950   1.000000
   84        5.952873   1.000000
   85        5.958526   1.000000
   86        6.011832   1.000000
   87        6.057811   1.000003
   88        6.103079   1.000011
   89        6.207558   1.000231
   90        6.228644   1.000395
   91        6.259481   1.000830
   92        6.280404   1.001331
   93        6.335853   1.004106
   94        6.382671   1.009156
   95        6.421659   1.015921
   96        6.480914   1.029136
   97        6.568971   1.027598
   98        6.633955   0.960168
   99        6.687995   0.829664
  100        6.736628   0.655607
  101        6.796749   0.404940
  102        6.867323   0.149147
  103        6.877084   0.121882
  104        6.925324   0.022081
  105        7.012815  -0.035300
  106        7.057278  -0.031181
  107        7.151326  -0.011351
  108        7.186070  -0.006560
  109        7.238627  -0.002466
  110        7.468468  -0.000005
  111        7.570061  -0.000000
  112        7.604952  -0.000000
  113        7.721977  -0.000000
  114        7.778526  -0.000000
  115        7.866457  -0.000000
  116        7.905280  -0.000000
  117        8.020817  -0.000000
  118        8.263795  -0.000000
  119        8.300178  -0.000000
  120        8.426255  -0.000000
 
  0.0000000E+00  0.2000000E+00  0.1387779E-16  0.1600000E-01
    1      -47.391804   1.000000
    2      -47.284418   1.000000
    3      -47.260278   1.000000
    4      -47.174291   1.000000
    5      -47.100586   1.000000
    6      -47.014932   1.000000
    7      -24.007847   1.000000
    8      -23.896986   1.000000
    9      -23.704754   1.000000
   10      -23.655081   1.000000
   11      -23.557120   1.000000
   12      -23.527212   1.000000
   13      -23.447262   1.000000
   14      -23.426700   1.000000
   15      -23.405036   1.000000
   16      -23.373669   1.000000
   17      -23.342950   1.000000
   18      -23.263659   1.000000
   19      -23.210208   1.000000
   20      -23.189813   1.000000
   21      -23.110982   1.000000
   22      -23.052198   1.000000
   23      -22.974370   1.000000
   24      -22.673448   1.000000
   25       -0.476227   1.000000
   26        0.804244   1.000000
   27        1.136039   1.000000
   28        1.617318   1.000000
   29        1.909279   1.000000
   30        2.172668   1.000000
   31        2.234001   1.000000
   32        2.410213   1.000000
   33        2.481847   1.000000
   34        2.567183   1.000000
   35        2.646932   1.000000
   36        2.672190   1.000000
   37        2.779728   1.000000
   38        2.807847   1.000000
   39        2.853947   1.000000
   40        2.925624   1.000000
   41        3.008079   1.000000
   42        3.106891   1.000000
   43        3.151667   1.000000
   44        3.335558   1.000000
   45        3.372359   1.000000
   46        3.479812   1.000000
   47        3.531931   1.000000
   48        3.615038   1.000000
   49        3.704131   1.000000
   50        3.748520   1.000000
   51        3.808731   1.000000
   52        3.899501   1.000000
   53        3.953376   1.000000
   54        4.007756   1.000000
   55        4.172427   1.000000
   56        4.249867   1.000000
   57        4.337977   1.000000
   58        4.451216   1.000000
   59        4.515594   1.000000
   60        4.572942   1.000000
   61        4.599883   1.000000
   62        4.689830   1.000000
   63        4.740459   1.000000
   64        4.788776   1.000000
   65        4.856284   1.000000
   66        4.879917   1.000000
   67        4.940466   1.000000
   68        4.980132   1.000000
   69        5.022108   1.000000
   70        5.058053   1.000000
   71        5.129630   1.000000
   72        5.196602   1.000000
   73        5.281027   1.000000
   74        5.326734   1.000000
   75        5.357635   1.000000
   76        5.458507   1.000000
   77        5.570042   1.000000
   78        5.655438   1.000000
   79        5.733953   1.000000
   80        5.753174   1.000000
   81        5.818019   1.000000
   82        5.865009   1.000000
   83        5.971090   1.000000
   84        5.992144   1.000000
   85        6.046577   1.000002
   86        6.133665   1.000029
   87        6.149040   1.000046
   88        6.191200   1.000149
   89        6.235093   1.000463
   90        6.304272   1.002211
   91        6.340196   1.004450
   92        6.407125   1.013123
   93        6.513302   1.034588
   94        6.605218   1.000579
   95        6.669870   0.881553
   96        6.747701   0.610729
   97        6.837179   0.247324
   98        6.922626   0.026156
   99        6.989168  -0.031275
  100        7.098119  -0.022145
  101        7.164853  -0.009259
  102        7.274413  -0.001150
  103        7.369928  -0.000105
  104        7.507066  -0.000001
  105        7.640783  -0.000000
  106        7.694717  -0.000000
  107        7.753870  -0.000000
  108        7.854284  -0.000000
  109        8.008486  -0.000000
  110        8.023234  -0.000000
  111        8.210467  -0.000000
  112        8.278167  -0.000000
  113        8.470762  -0.000000
  114        8.594045  -0.000000
  115        8.685300  -0.000000
  116        8.789242  -0.000000
  117        8.822930  -0.000000
  118        8.861532  -0.000000
  119        8.921017  -0.000000
  120        8.965892  -0.000000
 
  0.2000000E+00  0.2000000E+00 -0.4857226E-16  0.1600000E-01
    1      -47.391206   1.000000
    2      -47.276277   1.000000
    3      -47.259907   1.000000
    4      -47.172886   1.000000
    5      -47.100204   1.000000
    6      -47.024680   1.000000
    7      -23.924993   1.000000
    8      -23.872510   1.000000
    9      -23.708046   1.000000
   10      -23.650248   1.000000
   11      -23.560888   1.000000
   12      -23.533005   1.000000
   13      -23.440653   1.000000
   14      -23.431413   1.000000
   15      -23.404747   1.000000
   16      -23.382651   1.000000
   17      -23.343006   1.000000
   18      -23.266978   1.000000
   19      -23.213921   1.000000
   20      -23.197503   1.000000
   21      -23.116552   1.000000
   22      -23.048777   1.000000
   23      -22.973265   1.000000
   24      -22.801871   1.000000
   25       -0.284641   1.000000
   26        0.985518   1.000000
   27        1.375955   1.000000
   28        1.976812   1.000000
   29        2.145389   1.000000
   30        2.294596   1.000000
   31        2.372179   1.000000
   32        2.497942   1.000000
   33        2.565418   1.000000
   34        2.732530   1.000000
   35        2.759963   1.000000
   36        2.855709   1.000000
   37        2.927732   1.000000
   38        2.990722   1.000000
   39        3.051236   1.000000
   40        3.140270   1.000000
   41        3.158508   1.000000
   42        3.209809   1.000000
   43        3.339220   1.000000
   44        3.393210   1.000000
   45        3.529127   1.000000
   46        3.587569   1.000000
   47        3.669814   1.000000
   48        3.775995   1.000000
   49        3.812149   1.000000
   50        3.895843   1.000000
   51        3.942616   1.000000
   52        3.991373   1.000000
   53        4.086592   1.000000
   54        4.131525   1.000000
   55        4.188949   1.000000
   56        4.268181   1.000000
   57        4.379812   1.000000
   58        4.522841   1.000000
   59        4.531387   1.000000
   60        4.588538   1.000000
   61        4.638581   1.000000
   62        4.763829   1.000000
   63        4.777202   1.000000
   64        4.820696   1.000000
   65        4.856541   1.000000
   66        4.918169   1.000000
   67        4.965711   1.000000
   68        4.997775   1.000000
   69        5.058840   1.000000
   70        5.096355   1.000000
   71        5.153758   1.000000
   72        5.195986   1.000000
   73        5.304606   1.000000
   74        5.344395   1.000000
   75        5.431811   1.000000
   76        5.475900   1.000000
   77        5.534435   1.000000
   78        5.590674   1.000000
   79        5.667878   1.000000
   80        5.695225   1.000000
   81        5.782519   1.000000
   82        5.862223   1.000000
   83        5.876836   1.000000
   84        5.944987   1.000000
   85        5.967940   1.000000
   86        6.086886   1.000007
   87        6.137458   1.000032
   88        6.188520   1.000139
   89        6.238944   1.000509
   90        6.332066   1.003825
   91        6.339791   1.004417
   92        6.437883   1.019374
   93        6.513088   1.034566
   94        6.558952   1.031314
   95        6.598486   1.007436
   96        6.668972   0.883915
   97        6.743318   0.628651
   98        6.856311   0.182658
   99        6.916046   0.036816
  100        6.965318  -0.019934
  101        7.010820  -0.035180
  102        7.049066  -0.032656
  103        7.086005  -0.024944
  104        7.203295  -0.004852
  105        7.267025  -0.001355
  106        7.380853  -0.000077
  107        7.476302  -0.000004
  108        7.546494  -0.000000
  109        7.781016  -0.000000
  110        7.859457  -0.000000
  111        8.072043  -0.000000
  112        8.302602  -0.000000
  113        8.426555  -0.000000
  114        8.486644  -0.000000
  115        8.595695  -0.000000
  116        8.704671  -0.000000
  117        8.777464  -0.000000
  118        8.815659  -0.000000
  119        8.882896  -0.000000
  120        8.969876  -0.000000
 
  0.4000000E+00  0.2000000E+00 -0.5551115E-16  0.1600000E-01
    1      -47.390220   1.000000
    2      -47.262777   1.000000
    3      -47.258088   1.000000
    4      -47.169861   1.000000
    5      -47.100007   1.000000
    6      -47.042332   1.000000
    7      -23.910871   1.000000
    8      -23.714941   1.000000
    9      -23.675457   1.000000
   10      -23.570702   1.000000
   11      -23.559624   1.000000
   12      -23.536071   1.000000
   13      -23.440929   1.000000
   14      -23.431769   1.000000
   15      -23.401620   1.000000
   16      -23.393117   1.000000
   17      -23.342293   1.000000
   18      -23.272094   1.000000
   19      -23.228146   1.000000
   20      -23.209290   1.000000
   21      -23.153862   1.000000
   22      -23.100660   1.000000
   23      -23.044790   1.000000
   24      -22.970938   1.000000
   25        0.453856   1.000000
   26        1.422148   1.000000
   27        1.847890   1.000000
   28        2.068395   1.000000
   29        2.218906   1.000000
   30        2.397477   1.000000
   31        2.634327   1.000000
   32        2.932142   1.000000
   33        2.959139   1.000000
   34        3.085392   1.000000
   35        3.137375   1.000000
   36        3.202497   1.000000
   37        3.288760   1.000000
   38        3.341531   1.000000
   39        3.392136   1.000000
   40        3.481955   1.000000
   41        3.513822   1.000000
   42        3.560395   1.000000
   43        3.622416   1.000000
   44        3.642475   1.000000
   45        3.690992   1.000000
   46        3.798659   1.000000
   47        3.840628   1.000000
   48        3.873488   1.000000
   49        4.000057   1.000000
   50        4.077081   1.000000
   51        4.098729   1.000000
   52        4.129921   1.000000
   53        4.213397   1.000000
   54        4.333661   1.000000
   55        4.416735   1.000000
   56        4.451878   1.000000
   57        4.543605   1.000000
   58        4.609637   1.000000
   59        4.686952   1.000000
   60        4.715714   1.000000
   61        4.726874   1.000000
   62        4.811405   1.000000
   63        4.861719   1.000000
   64        4.897915   1.000000
   65        4.934184   1.000000
   66        5.016645   1.000000
   67        5.063593   1.000000
   68        5.118720   1.000000
   69        5.158600   1.000000
   70        5.197751   1.000000
   71        5.259302   1.000000
   72        5.311008   1.000000
   73        5.348742   1.000000
   74        5.382658   1.000000
   75        5.465576   1.000000
   76        5.511618   1.000000
   77        5.568618   1.000000
   78        5.599921   1.000000
   79        5.674623   1.000000
   80        5.691838   1.000000
   81        5.744753   1.000000
   82        5.807670   1.000000
   83        5.855170   1.000000
   84        5.906164   1.000000
   85        5.968685   1.000000
   86        6.016866   1.000001
   87        6.051595   1.000002
   88        6.129310   1.000025
   89        6.136774   1.000032
   90        6.173324   1.000091
   91        6.249431   1.000655
   92        6.270279   1.001062
   93        6.332080   1.003826
   94        6.348964   1.005214
   95        6.377383   1.008424
   96        6.429870   1.017630
   97        6.465310   1.025652
   98        6.519242   1.035103
   99        6.609397   0.995849
  100        6.668714   0.884592
  101        6.781421   0.469146
  102        6.807289   0.361782
  103        6.895137   0.077725
  104        6.925146   0.022345
  105        7.030965  -0.034956
  106        7.156611  -0.010499
  107        7.217846  -0.003706
  108        7.340126  -0.000234
  109        7.439930  -0.000013
  110        7.638436  -0.000000
  111        7.797527  -0.000000
  112        7.879683  -0.000000
  113        8.013538  -0.000000
  114        8.048570  -0.000000
  115        8.116976  -0.000000
  116        8.233252  -0.000000
  117        8.306497  -0.000000
  118        8.323577  -0.000000
  119        8.397305  -0.000000
  120        8.553072  -0.000000
 
 -0.4000000E+00  0.2000000E+00 -0.3908332E-16  0.1600000E-01
    1      -47.390205   1.000000
    2      -47.262704   1.000000
    3      -47.257913   1.000000
    4      -47.169857   1.000000
    5      -47.100270   1.000000
    6      -47.042329   1.000000
    7      -23.910384   1.000000
    8      -23.710552   1.000000
    9      -23.673583   1.000000
   10      -23.570153   1.000000
   11      -23.559270   1.000000
   12      -23.536065   1.000000
   13      -23.441013   1.000000
   14      -23.431995   1.000000
   15      -23.401690   1.000000
   16      -23.393191   1.000000
   17      -23.342321   1.000000
   18      -23.272011   1.000000
   19      -23.228186   1.000000
   20      -23.209415   1.000000
   21      -23.153936   1.000000
   22      -23.101793   1.000000
   23      -23.050525   1.000000
   24      -22.972847   1.000000
   25        0.787113   1.000000
   26        1.394559   1.000000
   27        1.698654   1.000000
   28        2.152560   1.000000
   29        2.250425   1.000000
   30        2.485997   1.000000
   31        2.613659   1.000000
   32        2.812716   1.000000
   33        2.911457   1.000000
   34        3.038898   1.000000
   35        3.075520   1.000000
   36        3.180213   1.000000
   37        3.288561   1.000000
   38        3.323493   1.000000
   39        3.384493   1.000000
   40        3.396825   1.000000
   41        3.460790   1.000000
   42        3.543890   1.000000
   43        3.613391   1.000000
   44        3.666969   1.000000
   45        3.693592   1.000000
   46        3.811600   1.000000
   47        3.870408   1.000000
   48        3.986314   1.000000
   49        4.068855   1.000000
   50        4.108631   1.000000
   51        4.172960   1.000000
   52        4.295753   1.000000
   53        4.320120   1.000000
   54        4.393778   1.000000
   55        4.435507   1.000000
   56        4.481100   1.000000
   57        4.587050   1.000000
   58        4.620555   1.000000
   59        4.694422   1.000000
   60        4.727763   1.000000
   61        4.789698   1.000000
   62        4.806506   1.000000
   63        4.847256   1.000000
   64        4.893828   1.000000
   65        4.922980   1.000000
   66        4.976602   1.000000
   67        4.987779   1.000000
   68        5.057704   1.000000
   69        5.122631   1.000000
   70        5.168906   1.000000
   71        5.240184   1.000000
   72        5.277769   1.000000
   73        5.345724   1.000000
   74        5.386322   1.000000
   75        5.426541   1.000000
   76        5.502364   1.000000
   77        5.577339   1.000000
   78        5.657437   1.000000
   79        5.687176   1.000000
   80        5.734162   1.000000
   81        5.782080   1.000000
   82        5.834145   1.000000
   83        5.851596   1.000000
   84        5.901475   1.000000
   85        5.988957   1.000000
   86        5.998018   1.000000
   87        6.048593   1.000002
   88        6.072326   1.000004
   89        6.157151   1.000058
   90        6.184120   1.000123
   91        6.232060   1.000430
   92        6.282361   1.001389
   93        6.339161   1.004366
   94        6.405511   1.012832
   95        6.475370   1.027928
   96        6.540623   1.034913
   97        6.552424   1.033032
   98        6.612149   0.992531
   99        6.685311   0.837847
  100        6.714438   0.740513
  101        6.783091   0.462096
  102        6.811776   0.343767
  103        6.856554   0.181888
  104        6.895374   0.077200
  105        7.025556  -0.035303
  106        7.082149  -0.025832
  107        7.094686  -0.022936
  108        7.232559  -0.002785
  109        7.277535  -0.001073
  110        7.367906  -0.000111
  111        7.514745  -0.000001
  112        7.621725  -0.000000
  113        7.758902  -0.000000
  114        7.852657  -0.000000
  115        8.046217  -0.000000
  116        8.140134  -0.000000
  117        8.239653  -0.000000
  118        8.264323  -0.000000
  119        8.345294  -0.000000
  120        8.370297  -0.000000
 
 -0.2000000E+00  0.2000000E+00  0.1006140E-15  0.1600000E-01
    1      -47.391182   1.000000
    2      -47.276257   1.000000
    3      -47.259527   1.000000
    4      -47.172879   1.000000
    5      -47.100627   1.000000
    6      -47.024673   1.000000
    7      -23.924600   1.000000
    8      -23.872042   1.000000
    9      -23.698610   1.000000
   10      -23.649548   1.000000
   11      -23.559534   1.000000
   12      -23.533010   1.000000
   13      -23.441043   1.000000
   14      -23.431527   1.000000
   15      -23.404831   1.000000
   16      -23.382800   1.000000
   17      -23.343016   1.000000
   18      -23.266828   1.000000
   19      -23.213956   1.000000
   20      -23.197785   1.000000
   21      -23.117238   1.000000
   22      -23.058397   1.000000
   23      -22.977151   1.000000
   24      -22.801895   1.000000
   25       -0.046389   1.000000
   26        1.032834   1.000000
   27        1.392751   1.000000
   28        1.758784   1.000000
   29        2.062252   1.000000
   30        2.426872   1.000000
   31        2.477614   1.000000
   32        2.639512   1.000000
   33        2.710134   1.000000
   34        2.763084   1.000000
   35        2.781001   1.000000
   36        2.888503   1.000000
   37        2.900470   1.000000
   38        3.004253   1.000000
   39        3.027019   1.000000
   40        3.093275   1.000000
   41        3.136157   1.000000
   42        3.210033   1.000000
   43        3.277907   1.000000
   44        3.332008   1.000000
   45        3.416697   1.000000
   46        3.532591   1.000000
   47        3.684583   1.000000