 running on   32 total cores
 distrk:  each k-point on   32 cores,    1 groups
 distr:  one band on    4 cores,    8 groups
 using from now: INCAR     
 vasp.5.4.4.18Apr17-6-g9f103f2a35 (build Aug 09 2018 16:20:53) complex          
  
 POSCAR found :  5 types and      29 ions
 scaLAPACK will be used

 ----------------------------------------------------------------------------- 
|                                                                             |
|  ADVICE TO THIS USER RUNNING 'VASP/VAMP'   (HEAR YOUR MASTER'S VOICE ...):  |
|                                                                             |
|      You enforced a specific xc-type in the INCAR file,                     |
|      a different type was found on the POTCAR file                          |
|          I HOPE YOU KNOW, WHAT YOU ARE  DOING                               |
|                                                                             |
 ----------------------------------------------------------------------------- 

 LDA part: xc-table for Pade appr. of Perdew
 POSCAR found :  5 types and      29 ions
 POSCAR, INCAR and KPOINTS ok, starting setup
 FFT: planning ...
 WAVECAR not read
 entering main loop
       N       E                     dE             d eps       ncg     rms          rms(c)
DAV:   1     0.215721761044E+04    0.21572E+04   -0.91316E+04 15120   0.175E+03
DAV:   2     0.742037288585E+02   -0.20830E+04   -0.20198E+04 15168   0.520E+02
DAV:   3    -0.301375961992E+03   -0.37558E+03   -0.35684E+03 26344   0.183E+02
DAV:   4    -0.348827615109E+03   -0.47452E+02   -0.43867E+02 23400   0.605E+01
DAV:   5    -0.353955635231E+03   -0.51280E+01   -0.50066E+01 28552   0.221E+01    0.756E+01
DAV:   6    -0.349064910976E+03    0.48907E+01   -0.15518E+02 21232   0.330E+01    0.428E+01
DAV:   7    -0.357569624394E+03   -0.85047E+01   -0.56108E+02 22184   0.100E+02    0.301E+01
DAV:   8    -0.353613469409E+03    0.39562E+01   -0.15992E+02 22504   0.427E+01    0.221E+01
DAV:   9    -0.338776529314E+03    0.14837E+02   -0.23316E+01 21600   0.158E+01    0.158E+01
DAV:  10    -0.334799954035E+03    0.39766E+01   -0.94477E+00 21848   0.903E+00    0.122E+01
DAV:  11    -0.332701264080E+03    0.20987E+01   -0.36375E+00 22176   0.523E+00    0.900E+00
DAV:  12    -0.331662052979E+03    0.10392E+01   -0.18522E+00 21776   0.411E+00    0.608E+00
DAV:  13    -0.331178437922E+03    0.48362E+00   -0.26802E+00 21728   0.473E+00    0.289E+00
DAV:  14    -0.331079762137E+03    0.98676E-01   -0.13970E+00 22440   0.337E+00    0.176E+00
DAV:  15    -0.331070728655E+03    0.90335E-02   -0.65943E-01 22208   0.238E+00    0.151E+00
DAV:  16    -0.331050440444E+03    0.20288E-01   -0.20389E-01 22864   0.125E+00    0.804E-01
DAV:  17    -0.331052339685E+03   -0.18992E-02   -0.52911E-02 22000   0.674E-01    0.884E-01
DAV:  18    -0.331044566361E+03    0.77733E-02   -0.92794E-02 21248   0.835E-01    0.372E-01
DAV:  19    -0.331043034682E+03    0.15317E-02   -0.17515E-02 21488   0.418E-01    0.212E-01
DAV:  20    -0.331042632938E+03    0.40174E-03   -0.69434E-03 20040   0.230E-01    0.122E-01
DAV:  21    -0.331042463593E+03    0.16934E-03   -0.16140E-03 19352   0.128E-01    0.479E-02
DAV:  22    -0.331042476614E+03   -0.13020E-04   -0.50543E-04 14992   0.826E-02
   1 F= -.33104248E+03 E0= -.33103703E+03  d E =-.331042E+03
 curvature:   0.00 expect dE= 0.000E+00 dE for cont linesearch  0.000E+00
 trial: gam= 0.00000 g(F)=  0.714E+00 g(S)=  0.170E+00 ort = 0.000E+00 (trialstep = 0.100E+01)
 search vector abs. value=  0.883E+00
 bond charge predicted
       N       E                     dE             d eps       ncg     rms          rms(c)
DAV:   1    -0.331771476210E+03   -0.72901E+00   -0.10420E+02 15120   0.383E+01    0.848E+00
DAV:   2    -0.332075096687E+03   -0.30362E+00   -0.12019E+01 22144   0.142E+01    0.593E+00
DAV:   3    -0.331904960537E+03    0.17014E+00   -0.68253E+00 22760   0.808E+00    0.524E+00
DAV:   4    -0.331663717406E+03    0.24124E+00   -0.38123E+00 23152   0.633E+00    0.329E+00
DAV:   5    -0.331522592566E+03    0.14112E+00   -0.18010E+00 22448   0.429E+00    0.172E+00
DAV:   6    -0.331471774693E+03    0.50818E-01   -0.47373E-01 24448   0.210E+00    0.102E+00
DAV:   7    -0.331471960354E+03   -0.18566E-03   -0.17206E-01 24904   0.123E+00    0.848E-01
DAV:   8    -0.331467629797E+03    0.43306E-02   -0.57015E-02 23080   0.752E-01    0.566E-01
DAV:   9    -0.331468560069E+03   -0.93027E-03   -0.19352E-02 22424   0.398E-01    0.396E-01
DAV:  10    -0.331471058725E+03   -0.24987E-02   -0.14776E-02 22576   0.362E-01    0.307E-01
DAV:  11    -0.331471625356E+03   -0.56663E-03   -0.14300E-02 22880   0.343E-01    0.206E-01
DAV:  12    -0.331471468639E+03    0.15672E-03   -0.54569E-03 21960   0.217E-01    0.909E-02
DAV:  13    -0.331471522537E+03   -0.53899E-04   -0.16232E-03 20512   0.116E-01    0.654E-02
DAV:  14    -0.331471501295E+03    0.21242E-04   -0.46283E-04 14056   0.764E-02
   2 F= -.33147150E+03 E0= -.33146750E+03  d E =-.429025E+00
 trial-energy change:   -0.429025  1 .order   -0.418581   -0.883391    0.046229
 step:   0.9533(harm=  0.9503)  dis= 0.04761  next Energy=  -331.472580 (dE=-0.430E+00)
 bond charge predicted
       N       E                     dE             d eps       ncg     rms          rms(c)
DAV:   1    -0.331473311461E+03   -0.17889E-02   -0.22898E-01 15680   0.181E+00    0.413E-01
DAV:   2    -0.331473977913E+03   -0.66645E-03   -0.25308E-02 22848   0.643E-01    0.292E-01
DAV:   3    -0.331473975641E+03    0.22715E-05   -0.17731E-02 22456   0.424E-01    0.262E-01
DAV:   4    -0.331473158958E+03    0.81668E-03   -0.79805E-03 20688   0.288E-01    0.148E-01
DAV:   5    -0.331472815932E+03    0.34303E-03   -0.36651E-03 22152   0.195E-01    0.766E-02
DAV:   6    -0.331472736113E+03    0.79819E-04   -0.11621E-03 18408   0.106E-01    0.508E-02
DAV:   7    -0.331472710074E+03    0.26039E-04   -0.34942E-04 12304   0.716E-02
   3 F= -.33147271E+03 E0= -.33146864E+03  d E =-.430233E+00
 curvature:  -0.47 expect dE=-0.462E+00 dE for cont linesearch -0.161E-07
 trial: gam= 1.10489 g(F)=  0.232E+00 g(S)=  0.744E+00 ort = 0.173E-03 (trialstep = 0.426E+00)
 search vector abs. value=  0.206E+01
 bond charge predicted
       N       E                     dE             d eps       ncg     rms          rms(c)
DAV:   1    -0.331718036847E+03   -0.24530E+00   -0.40367E+01 15120   0.217E+01    0.377E+00
DAV:   2    -0.331849428660E+03   -0.13139E+00   -0.32334E+00 21320   0.685E+00    0.251E+00
DAV:   3    -0.331847976588E+03    0.14521E-02   -0.17900E+00 22696   0.439E+00    0.219E+00
DAV:   4    -0.331766941268E+03    0.81035E-01   -0.53734E-01 22464   0.234E+00    0.984E-01
DAV:   5    -0.331764946035E+03    0.19952E-02   -0.21539E-01 22552   0.141E+00    0.908E-01
DAV:   6    -0.331754976592E+03    0.99694E-02   -0.12543E-01 24232   0.107E+00    0.508E-01
DAV:   7    -0.331753351646E+03    0.16249E-02   -0.38917E-02 24992   0.604E-01    0.352E-01
DAV:   8    -0.331752536156E+03    0.81549E-03   -0.14790E-02 21720   0.343E-01    0.259E-01
DAV:   9    -0.331752552115E+03   -0.15960E-04   -0.47913E-03 20840   0.194E-01    0.192E-01
DAV:  10    -0.331752734075E+03   -0.18196E-03   -0.23998E-03 19720   0.155E-01    0.139E-01
DAV:  11    -0.331752846827E+03   -0.11275E-03   -0.16988E-03 21520   0.153E-01    0.810E-02
DAV:  12    -0.331752908111E+03   -0.61285E-04   -0.17600E-03 20800   0.135E-01    0.758E-02
DAV:  13    -0.331752822041E+03    0.86071E-04   -0.63516E-04 16184   0.864E-02
   4 F= -.33175282E+03 E0= -.33174875E+03  d E =-.280112E+00
 trial-energy change:   -0.280112  1 .order   -0.280528   -0.415806   -0.145249
 step:   0.6545(harm=  0.6545)  dis= 0.05020  next Energy=  -331.792227 (dE=-0.320E+00)
 bond charge predicted
       N       E                     dE             d eps       ncg     rms          rms(c)
DAV:   1    -0.331784423213E+03   -0.31515E-01   -0.11602E+01 15120   0.116E+01    0.198E+00
DAV:   2    -0.331821495326E+03   -0.37072E-01   -0.92856E-01 21264   0.368E+00    0.133E+00
DAV:   3    -0.331819497656E+03    0.19977E-02   -0.49903E-01 22160   0.230E+00    0.116E+00
DAV:   4    -0.331797239783E+03    0.22258E-01   -0.15462E-01 21616   0.125E+00    0.523E-01
DAV:   5    -0.331796429267E+03    0.81052E-03   -0.59786E-02 22552   0.751E-01    0.464E-01
DAV:   6    -0.331793853148E+03    0.25761E-02   -0.34675E-02 24304   0.560E-01    0.267E-01
DAV:   7    -0.331793402782E+03    0.45037E-03   -0.10564E-02 22896   0.314E-01    0.182E-01
DAV:   8    -0.331793188067E+03    0.21472E-03   -0.38454E-03 20248   0.177E-01    0.135E-01
DAV:   9    -0.331793200161E+03   -0.12094E-04   -0.13269E-03 19232   0.106E-01    0.101E-01
DAV:  10    -0.331793245717E+03   -0.45556E-04   -0.68210E-04 15096   0.900E-02
   5 F= -.33179325E+03 E0= -.33178906E+03  d E =-.320536E+00
 curvature:  -0.69 expect dE=-0.763E-01 dE for cont linesearch -0.121E-03
 trial: gam= 0.02375 g(F)=  0.108E+00 g(S)=  0.242E-02 ort = 0.190E-01 (trialstep = 0.472E+00)
 search vector abs. value=  0.113E+00
 bond charge predicted
       N       E                     dE             d eps       ncg     rms          rms(c)
DAV:   1    -0.331826185727E+03   -0.32986E-01   -0.31228E+00 16232   0.595E+00    0.664E-01
DAV:   2    -0.331844719912E+03   -0.18534E-01   -0.21397E-01 22768   0.184E+00    0.749E-01
DAV:   3    -0.331839284108E+03    0.54358E-02   -0.76925E-02 22984   0.885E-01    0.426E-01
DAV:   4    -0.331838006600E+03    0.12775E-02   -0.15381E-02 22512   0.435E-01    0.292E-01
DAV:   5    -0.331837614274E+03    0.39233E-03   -0.10405E-02 22144   0.307E-01    0.211E-01
DAV:   6    -0.331837539026E+03    0.75248E-04   -0.60790E-03 22680   0.251E-01    0.162E-01
DAV:   7    -0.331837083115E+03    0.45591E-03   -0.32450E-03 21312   0.178E-01    0.697E-02
DAV:   8    -0.331837039477E+03    0.43638E-04   -0.65111E-04 15696   0.816E-02
   6 F= -.33183704E+03 E0= -.33183241E+03  d E =-.437938E-01
 trial-energy change:   -0.043794  1 .order   -0.043972   -0.052470   -0.035474
 step:   1.4558(harm=  1.4558)  dis= 0.02105  next Energy=  -331.874236 (dE=-0.810E-01)
 bond charge predicted
       N       E                     dE             d eps       ncg     rms          rms(c)
DAV:   1    -0.331826893385E+03    0.10190E-01   -0.13599E+01 16232   0.125E+01    0.137E+00
DAV:   2    -0.331901107545E+03   -0.74214E-01   -0.87736E-01 22568   0.370E+00    0.142E+00
DAV:   3    -0.331887973905E+03    0.13134E-01   -0.30049E-01 23536   0.177E+00    0.924E-01
DAV:   4    -0.331880475172E+03    0.74987E-02   -0.62541E-02 22904   0.867E-01    0.581E-01
DAV:   5    -0.331880075956E+03    0.39922E-03   -0.45605E-02 22704   0.639E-01    0.470E-01
DAV:   6    -0.331878602935E+03    0.14730E-02   -0.27775E-02 23304   0.532E-01    0.303E-01
DAV:   7    -0.331877042035E+03    0.15609E-02   -0.12081E-02 24432   0.350E-01    0.143E-01
DAV:   8    -0.331876863331E+03    0.17870E-03   -0.28838E-03 20592   0.154E-01    0.996E-02
DAV:   9    -0.331876842468E+03    0.20863E-04   -0.91777E-04 17536   0.862E-02
   7 F= -.33187684E+03 E0= -.33187134E+03  d E =-.835968E-01
 curvature:  -0.74 expect dE=-0.718E-01 dE for cont linesearch -0.225E-03
 trial: gam= 0.82636 g(F)=  0.217E-01 g(S)=  0.755E-01 ort = 0.587E-02 (trialstep = 0.410E+00)
 search vector abs. value=  0.184E+00
 bond charge predicted
       N       E                     dE             d eps       ncg     rms          rms(c)
DAV:   1    -0.331931682825E+03   -0.54819E-01   -0.34412E+00 16392   0.778E+00    0.199E+00
DAV:   2    -0.331940063284E+03   -0.83805E-02   -0.57758E-01 24032   0.319E+00    0.142E+00
DAV:   3    -0.331926921303E+03    0.13142E-01   -0.43408E-01 23096   0.205E+00    0.116E+00
DAV:   4    -0.331914427521E+03    0.12494E-01   -0.18554E-01 23304   0.138E+00    0.798E-01
DAV:   5    -0.331903971534E+03    0.10456E-01   -0.99339E-02 22480   0.947E-01    0.370E-01
DAV:   6    -0.331901771869E+03    0.21997E-02   -0.21014E-02 23232   0.443E-01    0.196E-01
DAV:   7    -0.331902162602E+03   -0.39073E-03   -0.82535E-03 23712   0.260E-01    0.175E-01
DAV:   8    -0.331902000784E+03    0.16182E-03   -0.35059E-03 20120   0.169E-01    0.118E-01
DAV:   9    -0.331902015195E+03   -0.14411E-04   -0.83933E-04 16824   0.967E-02
   8 F= -.33190202E+03 E0= -.33189639E+03  d E =-.251727E-01
 trial-energy change:   -0.025173  1 .order   -0.025929   -0.041855   -0.010003
 step:   0.5706(harm=  0.5388)  dis= 0.01254  next Energy=  -331.903928 (dE=-0.271E-01)
 bond charge predicted
       N       E                     dE             d eps       ncg     rms          rms(c)
DAV:   1    -0.331907157700E+03   -0.51569E-02   -0.53120E-01 16752   0.305E+00    0.767E-01
DAV:   2    -0.331908113070E+03   -0.95537E-03   -0.87529E-02 23736   0.127E+00    0.550E-01
DAV:   3    -0.331905986305E+03    0.21268E-02   -0.65484E-02 23008   0.817E-01    0.417E-01
DAV:   4    -0.331904309077E+03    0.16772E-02   -0.25813E-02 23240   0.529E-01    0.300E-01
DAV:   5    -0.331902873963E+03    0.14351E-02   -0.13970E-02 22464   0.355E-01    0.144E-01
DAV:   6    -0.331902614292E+03    0.25967E-03   -0.28410E-03 22560   0.163E-01    0.874E-02
DAV:   7    -0.331902711208E+03   -0.96916E-04   -0.11999E-03 20208   0.103E-01    0.853E-02
DAV:   8    -0.331902681422E+03    0.29786E-04   -0.43428E-04 13104   0.723E-02
   9 F= -.33190268E+03 E0= -.33189704E+03  d E =-.258390E-01
 curvature:  -0.46 expect dE=-0.177E-01 dE for cont linesearch -0.289E-03
 trial: gam= 0.54852 g(F)=  0.225E-01 g(S)=  0.162E-01 ort =-0.108E-01 (trialstep = 0.442E+00)
 search vector abs. value=  0.822E-01
 bond charge predicted
       N       E                     dE             d eps       ncg     rms          rms(c)
DAV:   1    -0.331912861929E+03   -0.10151E-01   -0.11407E+00 15192   0.333E+00    0.280E-01
DAV:   2    -0.331919516969E+03   -0.66550E-02   -0.65320E-02 24576   0.118E+00    0.488E-01
DAV:   3    -0.331915834814E+03    0.36822E-02   -0.26569E-02 21416   0.532E-01    0.184E-01
DAV:   4    -0.331915554182E+03    0.28063E-03   -0.35385E-03 22296   0.196E-01    0.125E-01
DAV:   5    -0.331915513401E+03    0.40781E-04   -0.20772E-03 19328   0.141E-01    0.112E-01
DAV:   6    -0.331915414355E+03    0.99046E-04   -0.13811E-03 17840   0.127E-01    0.684E-02
DAV:   7    -0.331915361538E+03    0.52817E-04   -0.62786E-04 15184   0.900E-02
  10 F= -.33191536E+03 E0= -.33190968E+03  d E =-.126801E-01
 trial-energy change:   -0.012680  1 .order   -0.012590   -0.014504   -0.010676
 step:   1.6752(harm=  1.6752)  dis= 0.03396  next Energy=  -331.930158 (dE=-0.275E-01)
 bond charge predicted
       N       E                     dE             d eps       ncg     rms          rms(c)
DAV:   1    -0.331910149350E+03    0.52650E-02   -0.88619E+00 15152   0.927E+00    0.760E-01
DAV:   2    -0.331959158357E+03   -0.49009E-01   -0.49750E-01 24816   0.326E+00    0.128E+00
DAV:   3    -0.331934035442E+03    0.25123E-01   -0.18974E-01 21704   0.140E+00    0.502E-01
DAV:   4    -0.331931785443E+03    0.22500E-02   -0.24700E-02 24448   0.524E-01    0.336E-01
DAV:   5    -0.331931491709E+03    0.29373E-03   -0.14928E-02 22352   0.372E-01    0.305E-01
DAV:   6    -0.331930673260E+03    0.81845E-03   -0.10366E-02 22056   0.333E-01    0.182E-01
DAV:   7    -0.331930317682E+03    0.35558E-03   -0.52884E-03 22120   0.232E-01    0.123E-01
DAV:   8    -0.331930108059E+03    0.20962E-03   -0.25552E-03 19960   0.151E-01    0.644E-02
DAV:   9    -0.331930043862E+03    0.64197E-04   -0.63526E-04 15896   0.805E-02
  11 F= -.33193004E+03 E0= -.33192444E+03  d E =-.273624E-01
 curvature:  -2.10 expect dE=-0.588E-01 dE for cont linesearch -0.329E-04
 trial: gam= 0.12474 g(F)=  0.109E-01 g(S)=  0.171E-01 ort =-0.113E-02 (trialstep = 0.689E+00)
 search vector abs. value=  0.290E-01
 bond charge predicted
       N       E                     dE             d eps       ncg     rms          rms(c)
DAV:   1    -0.331967949353E+03   -0.37841E-01   -0.19193E+00 20176   0.633E+00    0.184E+00
DAV:   2    -0.331969683753E+03   -0.17344E-02   -0.46336E-01 25912   0.284E+00    0.140E+00
DAV:   3    -0.331951777684E+03    0.17906E-01   -0.41837E-01 23008   0.191E+00    0.964E-01
DAV:   4    -0.331938199656E+03    0.13578E-01   -0.11380E-01 23936   0.104E+00    0.431E-01
DAV:   5    -0.331936765744E+03    0.14339E-02   -0.39995E-02 22632   0.657E-01    0.387E-01
DAV:   6    -0.331934927730E+03    0.18380E-02   -0.18664E-02 22856   0.411E-01    0.211E-01
DAV:   7    -0.331935103220E+03   -0.17549E-03   -0.61813E-03 21384   0.235E-01    0.172E-01
DAV:   8    -0.331934990844E+03    0.11238E-03   -0.28411E-03 19984   0.151E-01    0.117E-01
DAV:   9    -0.331935015304E+03   -0.24460E-04   -0.78999E-04 16736   0.924E-02
  12 F= -.33193502E+03 E0= -.33192930E+03  d E =-.497144E-02
 trial-energy change:   -0.004971  1 .order   -0.006099   -0.019179    0.006981
 step:   0.4660(harm=  0.5050)  dis= 0.00385  next Energy=  -331.936183 (dE=-0.614E-02)
 bond charge predicted
       N       E                     dE             d eps       ncg     rms          rms(c)
DAV:   1    -0.331939752227E+03   -0.47614E-02   -0.20160E-01 20328   0.205E+00    0.608E-01
DAV:   2    -0.331941223019E+03   -0.14708E-02   -0.57175E-02 25400   0.959E-01    0.496E-01
DAV:   3    -0.331938445570E+03    0.27774E-02   -0.45794E-02 22616   0.640E-01    0.339E-01
DAV:   4    -0.331937657532E+03    0.78804E-03   -0.14432E-02 22704   0.386E-01    0.245E-01
DAV:   5    -0.331936781894E+03    0.87564E-03   -0.94092E-03 22376   0.294E-01    0.127E-01
DAV:   6    -0.331936499265E+03    0.28263E-03   -0.27221E-03 19864   0.158E-01    0.669E-02
DAV:   7    -0.331936526910E+03   -0.27646E-04   -0.11633E-03 19248   0.101E-01    0.556E-02
DAV:   8    -0.331936490992E+03    0.35919E-04   -0.40163E-04 13088   0.709E-02
  13 F= -.33193649E+03 E0= -.33193084E+03  d E =-.644713E-02
 curvature:  -0.25 expect dE=-0.299E-02 dE for cont linesearch -0.753E-09
 trial: gam= 0.42227 g(F)=  0.723E-02 g(S)=  0.469E-02 ort = 0.932E-05 (trialstep = 0.644E+00)
 search vector abs. value=  0.171E-01
 bond charge predicted
       N       E                     dE             d eps       ncg     rms          rms(c)
DAV:   1    -0.331940339588E+03   -0.38127E-02   -0.82022E-01 16632   0.287E+00    0.287E-01
DAV:   2    -0.331943721836E+03   -0.33822E-02   -0.39753E-02 24128   0.831E-01    0.301E-01
DAV:   3    -0.331943151258E+03    0.57058E-03   -0.13866E-02 24224   0.355E-01    0.201E-01
DAV:   4    -0.331942752484E+03    0.39877E-03   -0.25537E-03 20664   0.164E-01    0.120E-01
DAV:   5    -0.331942806262E+03   -0.53777E-04   -0.17546E-03 19048   0.129E-01    0.110E-01
DAV:   6    -0.331942676741E+03    0.12952E-03   -0.13766E-03 18568   0.121E-01    0.569E-02
DAV:   7    -0.331942626105E+03    0.50635E-04   -0.39597E-04 12864   0.807E-02
  14 F= -.33194263E+03 E0= -.33193697E+03  d E =-.613511E-02
 trial-energy change:   -0.006135  1 .order   -0.006111   -0.007686   -0.004537
 step:   1.5723(harm=  1.5723)  dis= 0.01473  next Energy=  -331.945870 (dE=-0.938E-02)
 bond charge predicted
       N       E                     dE             d eps       ncg     rms          rms(c)
DAV:   1    -0.331941090500E+03    0.15862E-02   -0.17034E+00 16632   0.414E+00    0.407E-01
DAV:   2    -0.331947735295E+03   -0.66448E-02   -0.81191E-02 24080   0.118E+00    0.419E-01
DAV:   3    -0.331946881365E+03    0.85393E-03   -0.27049E-02 24216   0.492E-01    0.297E-01
DAV:   4    -0.331946050671E+03    0.83069E-03   -0.55237E-03 21600   0.239E-01    0.183E-01
DAV:   5    -0.331946111007E+03   -0.60336E-04   -0.35746E-03 20296   0.180E-01    0.157E-01
DAV:   6    -0.331945859787E+03    0.25122E-03   -0.28223E-03 21536   0.167E-01    0.823E-02
DAV:   7    -0.331945754515E+03    0.10527E-03   -0.86380E-04 16608   0.102E-01    0.412E-02
DAV:   8    -0.331945736269E+03    0.18246E-04   -0.16541E-04 10464   0.601E-02
  15 F= -.33194574E+03 E0= -.33194008E+03  d E =-.924528E-02
 curvature:  -1.13 expect dE=-0.534E-02 dE for cont linesearch -0.120E-04
 trial: gam= 0.45293 g(F)=  0.460E-02 g(S)=  0.137E-03 ort =-0.426E-03 (trialstep = 0.830E+00)
 search vector abs. value=  0.786E-02
 bond charge predicted
       N       E                     dE             d eps       ncg     rms          rms(c)
DAV:   1    -0.331948441896E+03   -0.26874E-02   -0.40573E-01 16328   0.189E+00    0.194E-01
DAV:   2    -0.331949866571E+03   -0.14247E-02   -0.17598E-02 25592   0.569E-01    0.219E-01
DAV:   3    -0.331949365919E+03    0.50065E-03   -0.71311E-03 21520   0.258E-01    0.134E-01
DAV:   4    -0.331949222859E+03    0.14306E-03   -0.12254E-03 18088   0.117E-01    0.906E-02
DAV:   5    -0.331949172641E+03    0.50218E-04   -0.52559E-04 14472   0.799E-02
  16 F= -.33194917E+03 E0= -.33194346E+03  d E =-.343637E-02
 ZBRENT: can't locate minimum, use default step
 trial-energy change:   -0.003436  1 .order   -0.003528   -0.003771   -0.003284
 step:   3.3193(harm=  6.4224)  dis= 0.02888  next Energy=  -331.960331 (dE=-0.146E-01)
 bond charge predicted
       N       E                     dE             d eps       ncg     rms          rms(c)
DAV:   1    -0.331948352646E+03    0.87021E-03   -0.36445E+00 16152   0.566E+00    0.583E-01
DAV:   2    -0.331961631343E+03   -0.13279E-01   -0.15873E-01 25560   0.170E+00    0.683E-01
DAV:   3    -0.331957032040E+03    0.45993E-02   -0.67545E-02 23704   0.777E-01    0.401E-01
DAV:   4    -0.331955637921E+03    0.13941E-02   -0.99572E-03 22496   0.322E-01    0.257E-01
DAV:   5    -0.331955365850E+03    0.27207E-03   -0.52719E-03 20136   0.213E-01    0.208E-01
DAV:   6    -0.331955155688E+03    0.21016E-03   -0.45569E-03 22376   0.214E-01    0.147E-01
DAV:   7    -0.331954726777E+03    0.42891E-03   -0.29008E-03 20000   0.177E-01    0.648E-02
DAV:   8    -0.331954673535E+03    0.53242E-04   -0.58234E-04 15552   0.800E-02
  17 F= -.33195467E+03 E0= -.33194892E+03  d E =-.893727E-02
 curvature:  -3.84 expect dE=-0.201E-01 dE for cont linesearch -0.344E-03
 trial: gam= 0.90136 g(F)=  0.376E-02 g(S)=  0.148E-02 ort = 0.838E-03 (trialstep = 0.794E+00)
 search vector abs. value=  0.131E-01
 bond charge predicted
       N       E                     dE             d eps       ncg     rms          rms(c)
DAV:   1    -0.331959125415E+03   -0.43986E-02   -0.54404E-01 15120   0.259E+00    0.536E-01
DAV:   2    -0.331960397232E+03   -0.12718E-02   -0.52296E-02 21976   0.879E-01    0.384E-01
DAV:   3    -0.331960167193E+03    0.23004E-03   -0.34705E-02 22688   0.583E-01    0.350E-01
DAV:   4    -0.331958623409E+03    0.15438E-02   -0.13206E-02 22136   0.368E-01    0.186E-01
DAV:   5    -0.331958136364E+03    0.48705E-03   -0.66213E-03 22688   0.254E-01    0.115E-01
DAV:   6    -0.331957914740E+03    0.22162E-03   -0.20198E-03 19888   0.140E-01    0.552E-02
DAV:   7    -0.331957922031E+03   -0.72918E-05   -0.65139E-04 16488   0.825E-02
  18 F= -.33195792E+03 E0= -.33195224E+03  d E =-.324850E-02
 trial-energy change:   -0.003248  1 .order   -0.003327   -0.004762   -0.001892
 step:   1.3184(harm=  1.3184)  dis= 0.01575  next Energy=  -331.958625 (dE=-0.395E-02)
 bond charge predicted
       N       E                     dE             d eps       ncg     rms          rms(c)
DAV:   1    -0.331958872109E+03   -0.95737E-03   -0.23700E-01 15120   0.172E+00    0.341E-01
DAV:   2    -0.331959439226E+03   -0.56712E-03   -0.21010E-02 21608   0.566E-01    0.240E-01
DAV:   3    -0.331959415353E+03    0.23873E-04   -0.14038E-02 22136   0.371E-01    0.220E-01
DAV:   4    -0.331958757763E+03    0.65759E-03   -0.52737E-03 20456   0.235E-01    0.110E-01
DAV:   5    -0.331958605366E+03    0.15240E-03   -0.25218E-03 19856   0.159E-01    0.767E-02
DAV:   6    -0.331958520047E+03    0.85320E-04   -0.79909E-04 16640   0.939E-02
  19 F= -.33195852E+03 E0= -.33195293E+03  d E =-.384651E-02
 curvature:  -1.44 expect dE=-0.182E-01 dE for cont linesearch -0.886E-05
 trial: gam= 2.54862 g(F)=  0.259E-02 g(S)=  0.100E-01 ort = 0.284E-03 (trialstep = 0.119E+00)
 search vector abs. value=  0.994E-01
 bond charge predicted
       N       E                     dE             d eps       ncg     rms          rms(c)
DAV:   1    -0.331959886850E+03   -0.12815E-02   -0.81480E-02 16208   0.877E-01    0.947E-02
DAV:   2    -0.331960377980E+03   -0.49113E-03   -0.52459E-03 25752   0.287E-01    0.151E-01
DAV:   3    -0.331960066355E+03    0.31163E-03   -0.23497E-03 19224   0.146E-01    0.736E-02
DAV:   4    -0.331960033865E+03    0.32490E-04   -0.15511E-04 11216   0.539E-02
  20 F= -.33196003E+03 E0= -.33195447E+03  d E =-.151382E-02
 ZBRENT: can't locate minimum, use default step
 trial-energy change:   -0.001514  1 .order   -0.001538   -0.001585   -0.001492
 step:   0.4754(harm=  2.0189)  dis= 0.01629  next Energy=  -331.971981 (dE=-0.135E-01)
 bond charge predicted
       N       E                     dE             d eps       ncg     rms          rms(c)
DAV:   1    -0.331962517907E+03   -0.24516E-02   -0.72975E-01 15880   0.262E+00    0.291E-01
DAV:   2    -0.331967296390E+03   -0.47785E-02   -0.49576E-02 25496   0.890E-01    0.460E-01
DAV:   3    -0.331964105442E+03    0.31909E-02   -0.23398E-02 22656   0.463E-01    0.195E-01
DAV:   4    -0.331963877471E+03    0.22797E-03   -0.25785E-03 20840   0.172E-01    0.134E-01
DAV:   5    -0.331963822790E+03    0.54681E-04   -0.19426E-03 19312   0.130E-01    0.111E-01
DAV:   6    -0.331963693732E+03    0.12906E-03   -0.13305E-03 18064   0.122E-01    0.604E-02
DAV:   7    -0.331963615589E+03    0.78143E-04   -0.43955E-04 13368   0.887E-02
  21 F= -.33196362E+03 E0= -.33195819E+03  d E =-.509554E-02
 curvature:  -2.56 expect dE=-0.202E-01 dE for cont linesearch -0.191E-02
 ZBRENT: increasing intervall
 opt :   1.1886  next Energy=  -331.966951 (dE=-0.843E-02)
 bond charge predicted
       N       E                     dE             d eps       ncg     rms          rms(c)
DAV:   1    -0.331962546646E+03    0.11471E-02   -0.29206E+00 15864   0.525E+00    0.588E-01
DAV:   2    -0.331983619346E+03   -0.21073E-01   -0.21495E-01 25240   0.184E+00    0.960E-01
DAV:   3    -0.331969196152E+03    0.14423E-01   -0.10235E-01 23472   0.970E-01    0.370E-01
DAV:   4    -0.331968502967E+03    0.69318E-03   -0.11524E-02 22904   0.363E-01    0.264E-01
DAV:   5    -0.331968033263E+03    0.46970E-03   -0.63793E-03 20136   0.232E-01    0.192E-01
DAV:   6    -0.331967782263E+03    0.25100E-03   -0.39231E-03 22232   0.206E-01    0.123E-01
DAV:   7    -0.331967476860E+03    0.30540E-03   -0.20509E-03 19680   0.163E-01    0.659E-02
DAV:   8    -0.331967429948E+03    0.46912E-04   -0.72436E-04 16416   0.868E-02
  22 F= -.33196743E+03 E0= -.33196233E+03  d E =-.890990E-02
 curvature:  -4.47 expect dE=-0.292E-01 dE for cont linesearch -0.169E-03
 trial: gam= 0.15039 g(F)=  0.503E-02 g(S)=  0.150E-02 ort = 0.194E-02 (trialstep = 0.333E+00)
 search vector abs. value=  0.936E-02
 bond charge predicted
       N       E                     dE             d eps       ncg     rms          rms(c)
DAV:   1    -0.331969450313E+03   -0.19735E-02   -0.10624E-01 15136   0.125E+00    0.258E-01
DAV:   2    -0.331969832636E+03   -0.38232E-03   -0.11998E-02 21632   0.441E-01    0.176E-01
DAV:   3    -0.331969752636E+03    0.80001E-04   -0.78904E-03 21360   0.292E-01    0.152E-01
DAV:   4    -0.331969387362E+03    0.36527E-03   -0.25788E-03 19856   0.168E-01    0.709E-02
DAV:   5    -0.331969338031E+03    0.49331E-04   -0.10887E-03 17200   0.105E-01    0.551E-02
DAV:   6    -0.331969285219E+03    0.52812E-04   -0.35441E-04 12472   0.706E-02
  23 F= -.33196929E+03 E0= -.33196422E+03  d E =-.185527E-02
 trial-energy change:   -0.001855  1 .order   -0.001912   -0.002269   -0.001555
 step:   1.0579(harm=  1.0579)  dis= 0.00906  next Energy=  -331.971036 (dE=-0.361E-02)
 bond charge predicted
       N       E                     dE             d eps       ncg     rms          rms(c)
DAV:   1    -0.331971738293E+03   -0.24003E-02   -0.50125E-01 15120   0.272E+00    0.570E-01
DAV:   2    -0.331973330847E+03   -0.15926E-02   -0.57666E-02 21904   0.957E-01    0.388E-01
DAV:   3    -0.331972750038E+03    0.58081E-03   -0.38121E-02 22488   0.637E-01    0.324E-01
DAV:   4    -0.331971168535E+03    0.15815E-02   -0.12354E-02 21968   0.365E-01    0.166E-01
DAV:   5    -0.331970891844E+03    0.27669E-03   -0.58558E-03 21496   0.227E-01    0.118E-01
DAV:   6    -0.331970680804E+03    0.21104E-03   -0.18515E-03 20192   0.131E-01    0.611E-02
DAV:   7    -0.331970686593E+03   -0.57885E-05   -0.66431E-04 16448   0.786E-02
  24 F= -.33197069E+03 E0= -.33196564E+03  d E =-.325664E-02
 curvature:  -0.73 expect dE=-0.649E-02 dE for cont linesearch -0.107E-04
 trial: gam= 1.48321 g(F)=  0.152E-02 g(S)=  0.742E-02 ort =-0.371E-03 (trialstep = 0.157E+00)
 search vector abs. value=  0.284E-01
 bond charge predicted
       N       E                     dE             d eps       ncg     rms          rms(c)
DAV:   1    -0.331971730480E+03   -0.10497E-02   -0.68414E-02 15768   0.883E-01    0.122E-01
DAV:   2    -0.331972055362E+03   -0.32488E-03   -0.52149E-03 24072   0.283E-01    0.118E-01
DAV:   3    -0.331971979049E+03    0.76313E-04   -0.20144E-03 18936   0.131E-01    0.876E-02
DAV:   4    -0.331971913118E+03    0.65931E-04   -0.54930E-04 15080   0.796E-02
  25 F= -.33197191E+03 E0= -.33196690E+03  d E =-.122653E-02
 ZBRENT: can't locate minimum, use default step
 trial-energy change:   -0.001227  1 .order   -0.001215   -0.001319   -0.001111
 step:   0.6292(harm=  0.9968)  dis= 0.00968  next Energy=  -331.974867 (dE=-0.418E-02)
 bond charge predicted
       N       E                     dE             d eps       ncg     rms          rms(c)
DAV:   1    -0.331972244359E+03   -0.26531E-03   -0.61041E-01 15920   0.264E+00    0.337E-01
DAV:   2    -0.331974973389E+03   -0.27290E-02   -0.41432E-02 23496   0.793E-01    0.315E-01
DAV:   3    -0.331974480371E+03    0.49302E-03   -0.16611E-02 22664   0.394E-01    0.234E-01
DAV:   4    -0.331973848035E+03    0.63234E-03   -0.45958E-03 21024   0.217E-01    0.120E-01
DAV:   5    -0.331973802632E+03    0.45403E-04   -0.23802E-03 20680   0.164E-01    0.972E-02
DAV:   6    -0.331973695021E+03    0.10761E-03   -0.17410E-03 18928   0.132E-01    0.602E-02
DAV:   7    -0.331973639229E+03    0.55792E-04   -0.46508E-04 14432   0.806E-02
  26 F= -.33197364E+03 E0= -.33196873E+03  d E =-.295264E-02
 curvature:  -1.37 expect dE=-0.304E-02 dE for cont linesearch -0.300E-04
 trial: gam= 0.00338 g(F)=  0.163E-02 g(S)=  0.594E-03 ort = 0.790E-03 (trialstep = 0.252E+00)
 search vector abs. value=  0.223E-02
 bond charge predicted
       N       E                     dE             d eps       ncg     rms          rms(c)
DAV:   1    -0.331974160967E+03   -0.46595E-03   -0.17112E-02 16008   0.513E-01    0.115E-01
DAV:   2    -0.331974223391E+03   -0.62424E-04   -0.19734E-03 20536   0.181E-01    0.791E-02
DAV:   3    -0.331974203846E+03    0.19544E-04   -0.15873E-03 18136   0.126E-01    0.676E-02
DAV:   4    -0.331974147027E+03    0.56819E-04   -0.53857E-04 14168   0.863E-02
  27 F= -.33197415E+03 E0= -.33196925E+03  d E =-.507798E-03
 ZBRENT: can't locate minimum, use default step
 trial-energy change:   -0.000508  1 .order   -0.000511   -0.000561   -0.000461
 step:   1.0068(harm=  1.4072)  dis= 0.00274  next Energy=  -331.975207 (dE=-0.157E-02)
 bond charge predicted
       N       E                     dE             d eps       ncg     rms          rms(c)
DAV:   1    -0.331975306436E+03   -0.11026E-02   -0.15214E-01 15128   0.151E+00    0.362E-01
DAV:   2    -0.331975428331E+03   -0.12190E-03   -0.18464E-02 22536   0.537E-01    0.226E-01
DAV:   3    -0.331975393480E+03    0.34851E-04   -0.14230E-02 21488   0.366E-01    0.206E-01
DAV:   4    -0.331974797042E+03    0.59644E-03   -0.57325E-03 20776   0.242E-01    0.112E-01
DAV:   5    -0.331974633063E+03    0.16398E-03   -0.24547E-03 20056   0.158E-01    0.724E-02
DAV:   6    -0.331974548055E+03    0.85008E-04   -0.62411E-04 15336   0.862E-02
  28 F= -.33197455E+03 E0= -.33196968E+03  d E =-.908827E-03
 curvature:  -0.62 expect dE=-0.160E-02 dE for cont linesearch -0.214E-04
 trial: gam= 1.28387 g(F)=  0.607E-03 g(S)=  0.197E-02 ort =-0.278E-03 (trialstep = 0.162E+00)
 search vector abs. value=  0.554E-02
 reached required accuracy - stopping structural energy minimisation
 writing wavefunctions
VASP is done!
