<?xml version="1.0" encoding="ISO-8859-1"?>
<modeling>
 <generator>
  <i name="program" type="string">vasp </i>
  <i name="version" type="string">5.4.4.18Apr17-6-g9f103f2a35  </i>
  <i name="subversion" type="string">(build Aug 09 2018 16:20:53) complex            parallel </i>
  <i name="platform" type="string">LinuxIFC </i>
  <i name="date" type="string">2020 04 13 </i>
  <i name="time" type="string">13:24:19 </i>
 </generator>
 <incar>
  <i type="string" name="SYSTEM"> SQS with 1 vacancy for VFE and VRV</i>
  <i type="string" name="PREC">normal</i>
  <i type="int" name="IALGO">    38</i>
  <i type="int" name="ICHARG">     2</i>
  <i type="int" name="IBRION">     2</i>
  <i type="int" name="NSW">    50</i>
  <i type="int" name="ISIF">     3</i>
  <i type="int" name="ISYM">     0</i>
  <i name="ENCUT">    600.00000000</i>
  <i type="string" name="LREAL"> Auto</i>
  <i type="int" name="ISMEAR">     1</i>
  <i name="SIGMA">      0.20000000</i>
  <v type="int" name="KPOINT_BSE">    -1     0     0     0</v>
  <i type="string" name="GGA"> PS</i>
 </incar>
 <structure name="primitive_cell" >
  <crystal>
   <varray name="basis" >
    <v>      -3.19000000      -3.19000000      -3.19000000 </v>
    <v>       1.59500000       1.59500000      -7.97500000 </v>
    <v>       7.97500000      -7.97500000      -1.59500000 </v>
   </varray>
   <i name="volume">    486.92638500 </i>
   <varray name="rec_basis" >
    <v>      -0.13584117      -0.12539185      -0.05224660 </v>
    <v>       0.04179728       0.06269592      -0.10449321 </v>
    <v>       0.06269592      -0.06269592       0.00000000 </v>
   </varray>
  </crystal>
  <varray name="positions" >
   <v>      -0.03333333      -0.06666667       0.40000000 </v>
   <v>       0.30000000      -0.40000000       0.40000000 </v>
   <v>      -0.10000000      -0.20000000       0.20000000 </v>
   <v>       0.06666667       0.13333333       0.20000000 </v>
   <v>       0.46666667      -0.06666667       0.40000000 </v>
   <v>      -0.13333333      -0.26666667      -0.40000000 </v>
   <v>       0.03333333       0.06666667      -0.40000000 </v>
   <v>      -0.36666667       0.26666667       0.40000000 </v>
   <v>       0.40000000      -0.20000000       0.20000000 </v>
   <v>      -0.20000000      -0.40000000       0.40000000 </v>
   <v>      -0.43333333       0.13333333       0.20000000 </v>
   <v>       0.13333333       0.26666667       0.40000000 </v>
   <v>      -0.46666667       0.06666667      -0.40000000 </v>
   <v>       0.23333333       0.46666667       0.20000000 </v>
   <v>       0.20000000       0.40000000      -0.40000000 </v>
   <v>       0.00000000       0.00000000       0.00000000 </v>
   <v>      -0.06666667      -0.13333333      -0.20000000 </v>
   <v>      -0.30000000       0.40000000      -0.40000000 </v>
   <v>      -0.26666667       0.46666667       0.20000000 </v>
   <v>       0.33333333      -0.33333333       0.00000000 </v>
   <v>       0.43333333      -0.13333333      -0.20000000 </v>
   <v>      -0.50000000       0.00000000       0.00000000 </v>
   <v>       0.26666667      -0.46666667      -0.20000000 </v>
   <v>      -0.33333333       0.33333333       0.00000000 </v>
   <v>      -0.40000000       0.20000000      -0.20000000 </v>
   <v>      -0.16666667      -0.33333333       0.00000000 </v>
   <v>      -0.23333333      -0.46666667      -0.20000000 </v>
   <v>       0.16666667       0.33333333       0.00000000 </v>
   <v>       0.10000000       0.20000000      -0.20000000 </v>
  </varray>
 </structure>
 <varray name="primitive_index" >
  <v type="int" >        1 </v>
  <v type="int" >       17 </v>
  <v type="int" >        7 </v>
  <v type="int" >       23 </v>
  <v type="int" >       19 </v>
  <v type="int" >       18 </v>
  <v type="int" >        6 </v>
  <v type="int" >        2 </v>
  <v type="int" >       15 </v>
  <v type="int" >        8 </v>
  <v type="int" >       14 </v>
  <v type="int" >       11 </v>
  <v type="int" >       27 </v>
  <v type="int" >       29 </v>
  <v type="int" >       22 </v>
  <v type="int" >        4 </v>
  <v type="int" >       13 </v>
  <v type="int" >       25 </v>
  <v type="int" >        9 </v>
  <v type="int" >       28 </v>
  <v type="int" >       16 </v>
  <v type="int" >        3 </v>
  <v type="int" >       21 </v>
  <v type="int" >       10 </v>
  <v type="int" >       26 </v>
  <v type="int" >       12 </v>
  <v type="int" >       24 </v>
  <v type="int" >       20 </v>
  <v type="int" >        5 </v>
 </varray>
 <kpoints>
  <generation param="Gamma">
   <v type="int" name="divisions">       5        5        5 </v>
   <v name="usershift">      0.00000000       0.00000000       0.00000000 </v>
   <v name="genvec1">      0.20000000      -0.00000000      -0.00000000 </v>
   <v name="genvec2">      0.00000000       0.20000000       0.00000000 </v>
   <v name="genvec3">      0.00000000       0.00000000       0.20000000 </v>
   <v name="shift">      0.00000000       0.00000000       0.00000000 </v>
  </generation>
  <varray name="kpointlist" >
   <v>       0.00000000       0.00000000       0.00000000 </v>
   <v>       0.20000000      -0.00000000       0.00000000 </v>
   <v>       0.40000000      -0.00000000       0.00000000 </v>
   <v>       0.00000000       0.20000000       0.00000000 </v>
   <v>       0.20000000       0.20000000      -0.00000000 </v>
   <v>       0.40000000       0.20000000      -0.00000000 </v>
   <v>      -0.40000000       0.20000000      -0.00000000 </v>
   <v>      -0.20000000       0.20000000       0.00000000 </v>
   <v>       0.00000000       0.40000000       0.00000000 </v>
   <v>       0.20000000       0.40000000       0.00000000 </v>
   <v>       0.40000000       0.40000000      -0.00000000 </v>
   <v>      -0.40000000       0.40000000       0.00000000 </v>
   <v>      -0.20000000       0.40000000       0.00000000 </v>
   <v>       0.00000000       0.00000000       0.20000000 </v>
   <v>       0.20000000      -0.00000000       0.20000000 </v>
   <v>       0.40000000       0.00000000       0.20000000 </v>
   <v>      -0.40000000       0.00000000       0.20000000 </v>
   <v>      -0.20000000       0.00000000       0.20000000 </v>
   <v>       0.00000000       0.20000000       0.20000000 </v>
   <v>       0.20000000       0.20000000       0.20000000 </v>
   <v>       0.40000000       0.20000000       0.20000000 </v>
   <v>      -0.40000000       0.20000000       0.20000000 </v>
   <v>      -0.20000000       0.20000000       0.20000000 </v>
   <v>       0.00000000       0.40000000       0.20000000 </v>
   <v>       0.20000000       0.40000000       0.20000000 </v>
   <v>       0.40000000       0.40000000       0.20000000 </v>
   <v>      -0.40000000       0.40000000       0.20000000 </v>
   <v>      -0.20000000       0.40000000       0.20000000 </v>
   <v>       0.00000000      -0.40000000       0.20000000 </v>
   <v>       0.20000000      -0.40000000       0.20000000 </v>
   <v>       0.40000000      -0.40000000       0.20000000 </v>
   <v>      -0.40000000      -0.40000000       0.20000000 </v>
   <v>      -0.20000000      -0.40000000       0.20000000 </v>
   <v>       0.00000000      -0.20000000       0.20000000 </v>
   <v>       0.20000000      -0.20000000       0.20000000 </v>
   <v>       0.40000000      -0.20000000       0.20000000 </v>
   <v>      -0.40000000      -0.20000000       0.20000000 </v>
   <v>      -0.20000000      -0.20000000       0.20000000 </v>
   <v>       0.00000000       0.00000000       0.40000000 </v>
   <v>       0.20000000      -0.00000000       0.40000000 </v>
   <v>       0.40000000      -0.00000000       0.40000000 </v>
   <v>      -0.40000000       0.00000000       0.40000000 </v>
   <v>      -0.20000000       0.00000000       0.40000000 </v>
   <v>      -0.00000000       0.20000000       0.40000000 </v>
   <v>       0.20000000       0.20000000       0.40000000 </v>
   <v>       0.40000000       0.20000000       0.40000000 </v>
   <v>      -0.40000000       0.20000000       0.40000000 </v>
   <v>      -0.20000000       0.20000000       0.40000000 </v>
   <v>       0.00000000       0.40000000       0.40000000 </v>
   <v>       0.20000000       0.40000000       0.40000000 </v>
   <v>       0.40000000       0.40000000       0.40000000 </v>
   <v>      -0.40000000       0.40000000       0.40000000 </v>
   <v>      -0.20000000       0.40000000       0.40000000 </v>
   <v>       0.00000000      -0.40000000       0.40000000 </v>
   <v>       0.20000000      -0.40000000       0.40000000 </v>
   <v>       0.40000000      -0.40000000       0.40000000 </v>
   <v>      -0.40000000      -0.40000000       0.40000000 </v>
   <v>      -0.20000000      -0.40000000       0.40000000 </v>
   <v>       0.00000000      -0.20000000       0.40000000 </v>
   <v>       0.20000000      -0.20000000       0.40000000 </v>
   <v>       0.40000000      -0.20000000       0.40000000 </v>
   <v>      -0.40000000      -0.20000000       0.40000000 </v>
   <v>      -0.20000000      -0.20000000       0.40000000 </v>
  </varray>
  <varray name="weights" >
   <v>       0.00800000 </v>
   <v>       0.01600000 </v>
   <v>       0.01600000 </v>
   <v>       0.01600000 </v>
   <v>       0.01600000 </v>
   <v>       0.01600000 </v>
   <v>       0.01600000 </v>
   <v>       0.01600000 </v>
   <v>       0.01600000 </v>
   <v>       0.01600000 </v>
   <v>       0.01600000 </v>
   <v>       0.01600000 </v>
   <v>       0.01600000 </v>
   <v>       0.01600000 </v>
   <v>       0.01600000 </v>
   <v>       0.01600000 </v>
   <v>       0.01600000 </v>
   <v>       0.01600000 </v>
   <v>       0.01600000 </v>
   <v>       0.01600000 </v>
   <v>       0.01600000 </v>
   <v>       0.01600000 </v>
   <v>       0.01600000 </v>
   <v>       0.01600000 </v>
   <v>       0.01600000 </v>
   <v>       0.01600000 </v>
   <v>       0.01600000 </v>
   <v>       0.01600000 </v>
   <v>       0.01600000 </v>
   <v>       0.01600000 </v>
   <v>       0.01600000 </v>
   <v>       0.01600000 </v>
   <v>       0.01600000 </v>
   <v>       0.01600000 </v>
   <v>       0.01600000 </v>
   <v>       0.01600000 </v>
   <v>       0.01600000 </v>
   <v>       0.01600000 </v>
   <v>       0.01600000 </v>
   <v>       0.01600000 </v>
   <v>       0.01600000 </v>
   <v>       0.01600000 </v>
   <v>       0.01600000 </v>
   <v>       0.01600000 </v>
   <v>       0.01600000 </v>
   <v>       0.01600000 </v>
   <v>       0.01600000 </v>
   <v>       0.01600000 </v>
   <v>       0.01600000 </v>
   <v>       0.01600000 </v>
   <v>       0.01600000 </v>
   <v>       0.01600000 </v>
   <v>       0.01600000 </v>
   <v>       0.01600000 </v>
   <v>       0.01600000 </v>
   <v>       0.01600000 </v>
   <v>       0.01600000 </v>
   <v>       0.01600000 </v>
   <v>       0.01600000 </v>
   <v>       0.01600000 </v>
   <v>       0.01600000 </v>
   <v>       0.01600000 </v>
   <v>       0.01600000 </v>
  </varray>
 </kpoints>
 <parameters>
  <separator name="general" >
   <i type="string" name="SYSTEM">SQS with 1 vacancy for VFE and VRV</i>
   <i type="logical" name="LCOMPAT"> F  </i>
  </separator>
  <separator name="electronic" >
   <i type="string" name="PREC">normal</i>
   <i name="ENMAX">    600.00000000</i>
   <i name="ENAUG">    455.65900000</i>
   <i name="EDIFF">      0.00010000</i>
   <i type="int" name="IALGO">    38</i>
   <i type="int" name="IWAVPR">    11</i>
   <i type="int" name="NBANDS">   120</i>
   <i name="NELECT">    198.00000000</i>
   <i type="int" name="TURBO">     0</i>
   <i type="int" name="IRESTART">     0</i>
   <i type="int" name="NREBOOT">     0</i>
   <i type="int" name="NMIN">     0</i>
   <i name="EREF">      0.00000000</i>
   <separator name="electronic smearing" >
    <i type="int" name="ISMEAR">     1</i>
    <i name="SIGMA">      0.20000000</i>
    <i name="KSPACING">      0.50000000</i>
    <i type="logical" name="KGAMMA"> T  </i>
   </separator>
   <separator name="electronic projectors" >
    <i type="logical" name="LREAL"> T  </i>
    <v name="ROPT">     -0.00050000     -0.00050000     -0.00050000     -0.00050000     -0.00050000</v>
    <i type="int" name="LMAXPAW">  -100</i>
    <i type="int" name="LMAXMIX">     2</i>
    <i type="logical" name="NLSPLINE"> F  </i>
   </separator>
   <separator name="electronic startup" >
    <i type="int" name="ISTART">     0</i>
    <i type="int" name="ICHARG">     2</i>
    <i type="int" name="INIWAV">     1</i>
   </separator>
   <separator name="electronic spin" >
    <i type="int" name="ISPIN">     1</i>
    <i type="logical" name="LNONCOLLINEAR"> F  </i>
    <v name="MAGMOM">      1.00000000      1.00000000      1.00000000      1.00000000      1.00000000      1.00000000      1.00000000      1.00000000      1.00000000      1.00000000      1.00000000      1.00000000      1.00000000      1.00000000      1.00000000      1.00000000      1.00000000      1.00000000      1.00000000      1.00000000
      1.00000000      1.00000000      1.00000000      1.00000000      1.00000000      1.00000000      1.00000000      1.00000000      1.00000000</v>
    <i name="NUPDOWN">     -1.00000000</i>
    <i type="logical" name="LSORBIT"> F  </i>
    <v name="SAXIS">      0.00000000      0.00000000      1.00000000</v>
    <i type="logical" name="LSPIRAL"> F  </i>
    <v name="QSPIRAL">      0.00000000      0.00000000      0.00000000</v>
    <i type="logical" name="LZEROZ"> F  </i>
   </separator>
   <separator name="electronic exchange-correlation" >
    <i type="logical" name="LASPH"> F  </i>
    <i type="logical" name="LMETAGGA"> F  </i>
   </separator>
   <separator name="electronic convergence" >
    <i type="int" name="NELM">    60</i>
    <i type="int" name="NELMDL">    -5</i>
    <i type="int" name="NELMIN">     2</i>
    <i name="ENINI">    600.00000000</i>
    <separator name="electronic convergence detail" >
     <i type="logical" name="LDIAG"> T  </i>
     <i type="logical" name="LSUBROT"> F  </i>
     <i name="WEIMIN">      0.00100000</i>
     <i name="EBREAK">      0.00000021</i>
     <i name="DEPER">      0.30000000</i>
     <i type="int" name="NRMM">     4</i>
     <i name="TIME">      0.40000000</i>
    </separator>
   </separator>
   <separator name="electronic mixer" >
    <i name="AMIX">      0.40000000</i>
    <i name="BMIX">      1.00000000</i>
    <i name="AMIN">      0.10000000</i>
    <i name="AMIX_MAG">      1.60000000</i>
    <i name="BMIX_MAG">      1.00000000</i>
    <separator name="electronic mixer details" >
     <i type="int" name="IMIX">     4</i>
     <i type="logical" name="MIXFIRST"> F  </i>
     <i type="int" name="MAXMIX">   -45</i>
     <i name="WC">    100.00000000</i>
     <i type="int" name="INIMIX">     1</i>
     <i type="int" name="MIXPRE">     1</i>
     <i type="int" name="MREMOVE">     5</i>
    </separator>
   </separator>
   <separator name="electronic dipolcorrection" >
    <i type="logical" name="LDIPOL"> F  </i>
    <i type="logical" name="LMONO"> F  </i>
    <i type="int" name="IDIPOL">     0</i>
    <i name="EPSILON">      1.00000000</i>
    <v name="DIPOL">   -100.00000000   -100.00000000   -100.00000000</v>
    <i name="EFIELD">      0.00000000</i>
   </separator>
  </separator>
  <separator name="grids" >
   <i type="int" name="NGX">    36</i>
   <i type="int" name="NGY">    50</i>
   <i type="int" name="NGZ">    70</i>
   <i type="int" name="NGXF">    72</i>
   <i type="int" name="NGYF">   100</i>
   <i type="int" name="NGZF">   140</i>
   <i type="logical" name="ADDGRID"> F  </i>
  </separator>
  <separator name="ionic" >
   <i type="int" name="NSW">    50</i>
   <i type="int" name="IBRION">     2</i>
   <i type="int" name="MDALGO">     0</i>
   <i type="int" name="ISIF">     3</i>
   <i name="PSTRESS">      0.00000000</i>
   <i name="EDIFFG">      0.00100000</i>
   <i type="int" name="NFREE">     1</i>
   <i name="POTIM">      0.50000000</i>
   <i name="SMASS">     -3.00000000</i>
   <i name="SCALEE">      1.00000000</i>
  </separator>
  <separator name="ionic md" >
   <i name="TEBEG">      0.00010000</i>
   <i name="TEEND">      0.00010000</i>
   <i type="int" name="NBLOCK">     1</i>
   <i type="int" name="KBLOCK">    50</i>
   <i type="int" name="NPACO">   256</i>
   <i name="APACO">     16.00000000</i>
  </separator>
  <separator name="symmetry" >
   <i type="int" name="ISYM">     0</i>
   <i name="SYMPREC">      0.00001000</i>
  </separator>
  <separator name="dos" >
   <i type="int" name="LORBIT">     0</i>
   <v name="RWIGS">     -1.00000000     -1.00000000     -1.00000000     -1.00000000     -1.00000000</v>
   <i type="int" name="NEDOS">   301</i>
   <i name="EMIN">     10.00000000</i>
   <i name="EMAX">    -10.00000000</i>
   <i name="EFERMI">      0.00000000</i>
  </separator>
  <separator name="writing" >
   <i type="int" name="NWRITE">     2</i>
   <i type="logical" name="LWAVE"> T  </i>
   <i type="logical" name="LDOWNSAMPLE"> F  </i>
   <i type="logical" name="LCHARG"> T  </i>
   <i type="logical" name="LPARD"> F  </i>
   <i type="logical" name="LVTOT"> F  </i>
   <i type="logical" name="LVHAR"> F  </i>
   <i type="logical" name="LELF"> F  </i>
   <i type="logical" name="LOPTICS"> F  </i>
   <v name="STM">      0.00000000      0.00000000      0.00000000      0.00000000      0.00000000      0.00000000      0.00000000</v>
  </separator>
  <separator name="performance" >
   <i type="int" name="NPAR">     8</i>
   <i type="int" name="NSIM">     4</i>
   <i type="int" name="NBLK">    -1</i>
   <i type="logical" name="LPLANE"> T  </i>
   <i type="logical" name="LSCALAPACK"> T  </i>
   <i type="logical" name="LSCAAWARE"> F  </i>
   <i type="logical" name="LSCALU"> F  </i>
   <i type="logical" name="LASYNC"> F  </i>
   <i type="logical" name="LORBITALREAL"> F  </i>
  </separator>
  <separator name="miscellaneous" >
   <i type="int" name="IDIOT">     3</i>
   <i type="int" name="ISPECIAL">     0</i>
   <i type="logical" name="LMUSIC"> F  </i>
   <v name="POMASS">     92.91000000     95.94000000    180.94800000     47.88000000    183.85000000</v>
   <v name="DARWINR">      0.00000000      0.00000000      0.00000000      0.00000000      0.00000000</v>
   <v name="DARWINV">      1.00000000      1.00000000      1.00000000      1.00000000      1.00000000</v>
   <i type="logical" name="LCORR"> T  </i>
  </separator>
  <i type="logical" name="GGA_COMPAT"> T  </i>
  <i type="logical" name="LBERRY"> F  </i>
  <i type="int" name="ICORELEVEL">     0</i>
  <i type="logical" name="LDAU"> F  </i>
  <i type="int" name="I_CONSTRAINED_M">     0</i>
  <separator name="electronic exchange-correlation" >
   <i type="string" name="GGA">PS</i>
   <i type="int" name="VOSKOWN">     0</i>
   <i type="logical" name="LHFCALC"> F  </i>
   <i type="string" name="PRECFOCK"></i>
   <i type="logical" name="LSYMGRAD"> F  </i>
   <i type="logical" name="LHFONE"> F  </i>
   <i type="logical" name="LRHFCALC"> F  </i>
   <i type="logical" name="LTHOMAS"> F  </i>
   <i type="logical" name="LMODELHF"> F  </i>
   <i name="ENCUT4O">     -1.00000000</i>
   <i type="int" name="EXXOEP">     0</i>
   <i type="int" name="FOURORBIT">     0</i>
   <i name="AEXX">      0.00000000</i>
   <i name="HFALPHA">      0.00000000</i>
   <i name="MCALPHA">      0.00000000</i>
   <i name="ALDAX">      1.00000000</i>
   <i name="AGGAX">      1.00000000</i>
   <i name="ALDAC">      1.00000000</i>
   <i name="AGGAC">      1.00000000</i>
   <i type="int" name="NKREDX">     1</i>
   <i type="int" name="NKREDY">     1</i>
   <i type="int" name="NKREDZ">     1</i>
   <i type="logical" name="SHIFTRED"> F  </i>
   <i type="logical" name="ODDONLY"> F  </i>
   <i type="logical" name="EVENONLY"> F  </i>
   <i type="int" name="LMAXFOCK">     0</i>
   <i type="int" name="NMAXFOCKAE">     0</i>
   <i type="logical" name="LFOCKAEDFT"> F  </i>
   <i name="HFSCREEN">      0.00000000</i>
   <i name="HFSCREENC">      0.00000000</i>
   <i type="int" name="NBANDSGWLOW">     0</i>
  </separator>
  <separator name="vdW DFT" >
   <i type="logical" name="LUSE_VDW"> F  </i>
   <i name="Zab_VDW">     -0.84910000</i>
   <i name="PARAM1">      0.12340000</i>
   <i name="PARAM2">      1.00000000</i>
   <i name="PARAM3">      0.00000000</i>
  </separator>
  <separator name="model GW" >
   <i type="int" name="MODEL_GW">     0</i>
   <i name="MODEL_EPS0">     10.07433900</i>
   <i name="MODEL_ALPHA">      1.00000000</i>
  </separator>
  <separator name="linear response parameters" >
   <i type="logical" name="LEPSILON"> F  </i>
   <i type="logical" name="LRPA"> F  </i>
   <i type="logical" name="LNABLA"> F  </i>
   <i type="logical" name="LVEL"> F  </i>
   <i type="int" name="KINTER">     0</i>
   <i name="CSHIFT">      0.10000000</i>
   <i name="OMEGAMAX">     -1.00000000</i>
   <i name="DEG_THRESHOLD">      0.00200000</i>
   <i name="RTIME">     -0.10000000</i>
   <i name="WPLASMAI">      0.00000000</i>
   <v name="DFIELD">      0.00000000      0.00000000      0.00000000</v>
   <v name="WPLASMA">      0.00000000      0.00000000      0.00000000      0.00000000      0.00000000      0.00000000      0.00000000      0.00000000      0.00000000</v>
  </separator>
  <separator name="orbital magnetization" >
   <i type="logical" name="NUCIND"> F  </i>
   <v name="MAGPOS">      0.00000000      0.00000000      0.00000000</v>
   <i type="logical" name="LNICSALL"> T  </i>
   <i type="logical" name="ORBITALMAG"> F  </i>
   <i type="logical" name="LMAGBLOCH"> F  </i>
   <i type="logical" name="LCHIMAG"> F  </i>
   <i type="logical" name="LGAUGE"> T  </i>
   <i type="int" name="MAGATOM">     0</i>
   <v name="MAGDIPOL">      0.00000000      0.00000000      0.00000000</v>
   <v name="AVECCONST">      0.00000000      0.00000000      0.00000000</v>
  </separator>
  <separator name="response functions" >
   <i type="logical" name="LADDER"> F  </i>
   <i type="logical" name="LRPAFORCE"> F  </i>
   <i type="logical" name="LFXC"> F  </i>
   <i type="logical" name="LHARTREE"> T  </i>
   <i type="int" name="IBSE">     0</i>
   <v type="int" name="KPOINT">    -1     0     0     0</v>
   <i type="logical" name="LTCTE"> F  </i>
   <i type="logical" name="LTETE"> F  </i>
   <i type="logical" name="LTRIPLET"> F  </i>
   <i type="logical" name="LFXCEPS"> F  </i>
   <i type="logical" name="LFXHEG"> F  </i>
   <i type="int" name="NATURALO">     2</i>
   <i type="logical" name="L2ORDER"> F  </i>
   <i type="logical" name="LMP2LT"> F  </i>
   <i type="logical" name="LUSEW"> F  </i>
   <i name="ENCUTGW">     -2.00000000</i>
   <i name="ENCUTGWSOFT">     -2.00000000</i>
   <i name="ENCUTLF">     -1.00000000</i>
   <i type="int" name="LMAXMP2">    -1</i>
   <i name="SCISSOR">      0.00000000</i>
   <i type="int" name="NOMEGA">     0</i>
   <i type="int" name="NOMEGAR">     0</i>
   <i type="int" name="NBANDSGW">    -1</i>
   <i type="int" name="NBANDSO">    -1</i>
   <i type="int" name="NBANDSV">    -1</i>
   <i type="int" name="NELM">     1</i>
   <i type="int" name="NELMHF">     1</i>
   <i type="int" name="DIM">     3</i>
   <i type="int" name="ANTIRES">     0</i>
   <i name="OMEGAMAX">    -30.00000000</i>
   <i name="OMEGAMIN">    -30.00000000</i>
   <i name="OMEGATL">   -200.00000000</i>
   <i type="int" name="OMEGAGRID">   140</i>
   <i name="CSHIFT">     -0.10000000</i>
   <i type="logical" name="SELFENERGY"> F  </i>
   <i type="logical" name="LSPECTRAL"> F  </i>
   <i type="logical" name="LSPECTRALGW"> F  </i>
   <i type="logical" name="LSINGLES"> F  </i>
   <i type="logical" name="LFERMIGW"> F  </i>
   <i type="logical" name="ODDONLYGW"> F  </i>
   <i type="logical" name="EVENONLYGW"> F  </i>
   <i type="int" name="NKREDLFX">     1</i>
   <i type="int" name="NKREDLFY">     1</i>
   <i type="int" name="NKREDLFZ">     1</i>
   <i type="int" name="MAXMEM">  2800</i>
   <i type="int" name="TELESCOPE">     0</i>
   <i type="int" name="TAUPAR">     1</i>
   <i type="int" name="OMEGAPAR">    -1</i>
   <i name="LAMBDA">      1.00000000</i>
  </separator>
  <separator name="External order field" >
   <i name="OFIELD_KAPPA">      0.00000000</i>
   <v name="OFIELD_K">      0.00000000      0.00000000      0.00000000</v>
   <i name="OFIELD_Q6_NEAR">      0.00000000</i>
   <i name="OFIELD_Q6_FAR">      0.00000000</i>
   <i name="OFIELD_A">      0.00000000</i>
  </separator>
  <separator name="solvation model" >
   <i type="logical" name="LSOL"> F  </i>
  </separator>
 </parameters>
 <atominfo>
  <atoms>      29 </atoms>
  <types>       5 </types>
  <array name="atoms" >
   <dimension dim="1">ion</dimension>
   <field type="string">element</field>
   <field type="int">atomtype</field>
   <set>
    <rc><c>Nb</c><c>   1</c></rc>
    <rc><c>Nb</c><c>   1</c></rc>
    <rc><c>Nb</c><c>   1</c></rc>
    <rc><c>Nb</c><c>   1</c></rc>
    <rc><c>Nb</c><c>   1</c></rc>
    <rc><c>Nb</c><c>   1</c></rc>
    <rc><c>Mo</c><c>   2</c></rc>
    <rc><c>Mo</c><c>   2</c></rc>
    <rc><c>Mo</c><c>   2</c></rc>
    <rc><c>Mo</c><c>   2</c></rc>
    <rc><c>Mo</c><c>   2</c></rc>
    <rc><c>Ta</c><c>   3</c></rc>
    <rc><c>Ta</c><c>   3</c></rc>
    <rc><c>Ta</c><c>   3</c></rc>
    <rc><c>Ta</c><c>   3</c></rc>
    <rc><c>Ta</c><c>   3</c></rc>
    <rc><c>Ta</c><c>   3</c></rc>
    <rc><c>Ti</c><c>   4</c></rc>
    <rc><c>Ti</c><c>   4</c></rc>
    <rc><c>Ti</c><c>   4</c></rc>
    <rc><c>Ti</c><c>   4</c></rc>
    <rc><c>Ti</c><c>   4</c></rc>
    <rc><c>Ti</c><c>   4</c></rc>
    <rc><c>W </c><c>   5</c></rc>
    <rc><c>W </c><c>   5</c></rc>
    <rc><c>W </c><c>   5</c></rc>
    <rc><c>W </c><c>   5</c></rc>
    <rc><c>W </c><c>   5</c></rc>
    <rc><c>W </c><c>   5</c></rc>
   </set>
  </array>
  <array name="atomtypes" >
   <dimension dim="1">type</dimension>
   <field type="int">atomspertype</field>
   <field type="string">element</field>
   <field>mass</field>
   <field>valence</field>
   <field type="string">pseudopotential</field>
   <set>
    <rc><c>   6</c><c>Nb</c><c>     92.91000000</c><c>     13.00000000</c><c>  PAW_PBE Nb_sv 25May2007               </c></rc>
    <rc><c>   5</c><c>Mo</c><c>     95.94000000</c><c>      6.00000000</c><c>  PAW_PBE Mo 08Apr2002                  </c></rc>
    <rc><c>   6</c><c>Ta</c><c>    180.94800000</c><c>      5.00000000</c><c>  PAW_PBE Ta 17Jan2003                  </c></rc>
    <rc><c>   6</c><c>Ti</c><c>     47.88000000</c><c>      4.00000000</c><c>  PAW_PBE Ti 08Apr2002                  </c></rc>
    <rc><c>   6</c><c>W </c><c>    183.85000000</c><c>      6.00000000</c><c>  PAW_PBE W 08Apr2002                   </c></rc>
   </set>
  </array>
 </atominfo>
 <structure name="initialpos" >
  <crystal>
   <varray name="basis" >
    <v>      -3.19000000      -3.19000000      -3.19000000 </v>
    <v>       1.59500000       1.59500000      -7.97500000 </v>
    <v>       7.97500000      -7.97500000      -1.59500000 </v>
   </varray>
   <i name="volume">    486.92638500 </i>
   <varray name="rec_basis" >
    <v>      -0.13584117      -0.12539185      -0.05224660 </v>
    <v>       0.04179728       0.06269592      -0.10449321 </v>
    <v>       0.06269592      -0.06269592       0.00000000 </v>
   </varray>
  </crystal>
  <varray name="positions" >
   <v>       0.96666667       0.93333333       0.40000000 </v>
   <v>       0.63333333       0.26666667       0.40000000 </v>
   <v>       0.50000000       0.00000000       0.00000000 </v>
   <v>       0.00000000       0.00000000       0.00000000 </v>
   <v>       0.10000000       0.20000000       0.80000000 </v>
   <v>       0.03333333       0.06666667       0.60000000 </v>
   <v>       0.90000000       0.80000000       0.20000000 </v>
   <v>       0.80000000       0.60000000       0.40000000 </v>
   <v>       0.73333333       0.46666667       0.20000000 </v>
   <v>       0.66666667       0.33333333       0.00000000 </v>
   <v>       0.13333333       0.26666667       0.40000000 </v>
   <v>       0.83333333       0.66666667       0.00000000 </v>
   <v>       0.93333333       0.86666667       0.80000000 </v>
   <v>       0.56666667       0.13333333       0.20000000 </v>
   <v>       0.40000000       0.80000000       0.20000000 </v>
   <v>       0.43333333       0.86666667       0.80000000 </v>
   <v>       0.30000000       0.60000000       0.40000000 </v>
   <v>       0.86666667       0.73333333       0.60000000 </v>
   <v>       0.46666667       0.93333333       0.40000000 </v>
   <v>       0.16666667       0.33333333       0.00000000 </v>
   <v>       0.26666667       0.53333333       0.80000000 </v>
   <v>       0.20000000       0.40000000       0.60000000 </v>
   <v>       0.06666667       0.13333333       0.20000000 </v>
   <v>       0.76666667       0.53333333       0.80000000 </v>
   <v>       0.70000000       0.40000000       0.60000000 </v>
   <v>       0.60000000       0.20000000       0.80000000 </v>
   <v>       0.53333333       0.06666667       0.60000000 </v>
   <v>       0.33333333       0.66666667       0.00000000 </v>
   <v>       0.23333333       0.46666667       0.20000000 </v>
  </varray>
 </structure>
 <calculation>
  <scstep>
   <time name="dav">   18.09   18.12</time>
   <time name="total">   18.13   18.16</time>
   <energy>
    <i name="alphaZ">   1294.27175739 </i>
    <i name="ewald"> -11408.70858577 </i>
    <i name="hartreedc">  -3257.61063169 </i>
    <i name="XCdc">   -844.12955719 </i>
    <i name="pawpsdc">  12039.63450526 </i>
    <i name="pawaedc"> -10545.81420232 </i>
    <i name="eentropy">      0.00086587 </i>
    <i name="bandstr">   1886.01162999 </i>
    <i name="atom">  12993.56182891 </i>
    <i name="e_fr_energy">   2157.21761044 </i>
    <i name="e_wo_entrp">   2157.21674457 </i>
    <i name="e_0_energy">   2157.21732182 </i>
   </energy>
  </scstep>
  <scstep>
   <time name="dav">   18.43   18.45</time>
   <time name="total">   18.43   18.45</time>
   <energy>
    <i name="e_fr_energy">     74.20372886 </i>
    <i name="e_wo_entrp">     74.19700825 </i>
    <i name="e_0_energy">     74.20148865 </i>
   </energy>
  </scstep>
  <scstep>
   <time name="dav">   28.51   28.54</time>
   <time name="total">   28.51   28.54</time>
   <energy>
    <i name="e_fr_energy">   -301.37596199 </i>
    <i name="e_wo_entrp">   -301.37046986 </i>
    <i name="e_0_energy">   -301.37413128 </i>
   </energy>
  </scstep>
  <scstep>
   <time name="dav">   25.74   25.79</time>
   <time name="total">   25.75   25.79</time>
   <energy>
    <i name="e_fr_energy">   -348.82761511 </i>
    <i name="e_wo_entrp">   -348.81764101 </i>
    <i name="e_0_energy">   -348.82429041 </i>
   </energy>
  </scstep>
  <scstep>
   <time name="dav">   30.53   30.58</time>
   <time name="total">   31.13   31.17</time>
   <energy>
    <i name="e_fr_energy">   -353.95563523 </i>
    <i name="e_wo_entrp">   -353.94578149 </i>
    <i name="e_0_energy">   -353.95235065 </i>
   </energy>
  </scstep>
  <scstep>
   <time name="dav">   23.80   23.84</time>
   <time name="total">   24.43   24.47</time>
   <energy>
    <i name="e_fr_energy">   -349.06491098 </i>
    <i name="e_wo_entrp">   -349.07164754 </i>
    <i name="e_0_energy">   -349.06715650 </i>
   </energy>
  </scstep>
  <scstep>
   <time name="dav">   24.71   24.76</time>
   <time name="total">   25.35   25.41</time>
   <energy>
    <i name="e_fr_energy">   -357.56962439 </i>
    <i name="e_wo_entrp">   -357.57483330 </i>
    <i name="e_0_energy">   -357.57136069 </i>
   </energy>
  </scstep>
  <scstep>
   <time name="dav">   24.98   25.02</time>
   <time name="total">   25.61   25.65</time>
   <energy>
    <i name="e_fr_energy">   -353.61346941 </i>
    <i name="e_wo_entrp">   -353.62510109 </i>
    <i name="e_0_energy">   -353.61734663 </i>
   </energy>
  </scstep>
  <scstep>
   <time name="dav">   24.14   24.17</time>
   <time name="total">   24.76   24.79</time>
   <energy>
    <i name="e_fr_energy">   -338.77652931 </i>
    <i name="e_wo_entrp">   -338.77283870 </i>
    <i name="e_0_energy">   -338.77529911 </i>
   </energy>
  </scstep>
  <scstep>
   <time name="dav">   24.35   24.38</time>
   <time name="total">   24.98   25.02</time>
   <energy>
    <i name="e_fr_energy">   -334.79995404 </i>
    <i name="e_wo_entrp">   -334.78706151 </i>
    <i name="e_0_energy">   -334.79565653 </i>
   </energy>
  </scstep>
  <scstep>
   <time name="dav">   24.74   24.77</time>
   <time name="total">   25.37   25.40</time>
   <energy>
    <i name="e_fr_energy">   -332.70126408 </i>
    <i name="e_wo_entrp">   -332.68610598 </i>
    <i name="e_0_energy">   -332.69621138 </i>
   </energy>
  </scstep>
  <scstep>
   <time name="dav">   24.41   24.45</time>
   <time name="total">   25.04   25.07</time>
   <energy>
    <i name="e_fr_energy">   -331.66205298 </i>
    <i name="e_wo_entrp">   -331.64684433 </i>
    <i name="e_0_energy">   -331.65698343 </i>
   </energy>
  </scstep>
  <scstep>
   <time name="dav">   24.59   24.63</time>
   <time name="total">   25.24   25.29</time>
   <energy>
    <i name="e_fr_energy">   -331.17843792 </i>
    <i name="e_wo_entrp">   -331.16272522 </i>
    <i name="e_0_energy">   -331.17320035 </i>
   </energy>
  </scstep>
  <scstep>
   <time name="dav">   25.30   25.34</time>
   <time name="total">   25.92   25.97</time>
   <energy>
    <i name="e_fr_energy">   -331.07976214 </i>
    <i name="e_wo_entrp">   -331.06264783 </i>
    <i name="e_0_energy">   -331.07405737 </i>
   </energy>
  </scstep>
  <scstep>
   <time name="dav">   25.08   25.12</time>
   <time name="total">   25.71   25.76</time>
   <energy>
    <i name="e_fr_energy">   -331.07072866 </i>
    <i name="e_wo_entrp">   -331.05482581 </i>
    <i name="e_0_energy">   -331.06542771 </i>
   </energy>
  </scstep>
  <scstep>
   <time name="dav">   25.74   25.77</time>
   <time name="total">   26.38   26.42</time>
   <energy>
    <i name="e_fr_energy">   -331.05044044 </i>
    <i name="e_wo_entrp">   -331.03495383 </i>
    <i name="e_0_energy">   -331.04527824 </i>
   </energy>
  </scstep>
  <scstep>
   <time name="dav">   24.62   24.65</time>
   <time name="total">   25.25   25.28</time>
   <energy>
    <i name="e_fr_energy">   -331.05233968 </i>
    <i name="e_wo_entrp">   -331.03589695 </i>
    <i name="e_0_energy">   -331.04685877 </i>
   </energy>
  </scstep>
  <scstep>
   <time name="dav">   23.92   23.95</time>
   <time name="total">   24.55   24.57</time>
   <energy>
    <i name="e_fr_energy">   -331.04456636 </i>
    <i name="e_wo_entrp">   -331.02841107 </i>
    <i name="e_0_energy">   -331.03918126 </i>
   </energy>
  </scstep>
  <scstep>
   <time name="dav">   24.11   24.13</time>
   <time name="total">   24.74   24.78</time>
   <energy>
    <i name="e_fr_energy">   -331.04303468 </i>
    <i name="e_wo_entrp">   -331.02685086 </i>
    <i name="e_0_energy">   -331.03764007 </i>
   </energy>
  </scstep>
  <scstep>
   <time name="dav">   22.83   22.85</time>
   <time name="total">   23.47   23.49</time>
   <energy>
    <i name="e_fr_energy">   -331.04263294 </i>
    <i name="e_wo_entrp">   -331.02637641 </i>
    <i name="e_0_energy">   -331.03721410 </i>
   </energy>
  </scstep>
  <scstep>
   <time name="dav">   22.23   22.25</time>
   <time name="total">   22.85   22.88</time>
   <energy>
    <i name="e_fr_energy">   -331.04246359 </i>
    <i name="e_wo_entrp">   -331.02617130 </i>
    <i name="e_0_energy">   -331.03703283 </i>
   </energy>
  </scstep>
  <scstep>
   <time name="dav">   18.25   18.27</time>
   <time name="total">   18.29   18.32</time>
   <energy>
    <i name="alphaZ">   1294.27175739 </i>
    <i name="ewald"> -11408.70858577 </i>
    <i name="hartreedc">  -3118.83859803 </i>
    <i name="XCdc">   -838.44382820 </i>
    <i name="pawpsdc">  20995.23697472 </i>
    <i name="pawaedc"> -19502.22628258 </i>
    <i name="eentropy">     -0.01632556 </i>
    <i name="bandstr">   -745.87941748 </i>
    <i name="atom">  12993.56182891 </i>
    <i name="e_fr_energy">   -331.04247661 </i>
    <i name="e_wo_entrp">   -331.02615105 </i>
    <i name="e_0_energy">   -331.03703476 </i>
   </energy>
  </scstep>
  <structure>
   <crystal>
    <varray name="basis" >
     <v>      -3.19000000      -3.19000000      -3.19000000 </v>
     <v>       1.59500000       1.59500000      -7.97500000 </v>
     <v>       7.97500000      -7.97500000      -1.59500000 </v>
    </varray>
    <i name="volume">    486.92638500 </i>
    <varray name="rec_basis" >
     <v>      -0.13584117      -0.12539185      -0.05224660 </v>
     <v>       0.04179728       0.06269592      -0.10449321 </v>
     <v>       0.06269592      -0.06269592       0.00000000 </v>
    </varray>
   </crystal>
   <varray name="positions" >
    <v>       0.96666667       0.93333333       0.40000000 </v>
    <v>       0.63333333       0.26666667       0.40000000 </v>
    <v>       0.50000000       0.00000000       0.00000000 </v>
    <v>       0.00000000       0.00000000       0.00000000 </v>
    <v>       0.10000000       0.20000000       0.80000000 </v>
    <v>       0.03333333       0.06666667       0.60000000 </v>
    <v>       0.90000000       0.80000000       0.20000000 </v>
    <v>       0.80000000       0.60000000       0.40000000 </v>
    <v>       0.73333333       0.46666667       0.20000000 </v>
    <v>       0.66666667       0.33333333       0.00000000 </v>
    <v>       0.13333333       0.26666667       0.40000000 </v>
    <v>       0.83333333       0.66666667       0.00000000 </v>
    <v>       0.93333333       0.86666667       0.80000000 </v>
    <v>       0.56666667       0.13333333       0.20000000 </v>
    <v>       0.40000000       0.80000000       0.20000000 </v>
    <v>       0.43333333       0.86666667       0.80000000 </v>
    <v>       0.30000000       0.60000000       0.40000000 </v>
    <v>       0.86666667       0.73333333       0.60000000 </v>
    <v>       0.46666667       0.93333333       0.40000000 </v>
    <v>       0.16666667       0.33333333       0.00000000 </v>
    <v>       0.26666667       0.53333333       0.80000000 </v>
    <v>       0.20000000       0.40000000       0.60000000 </v>
    <v>       0.06666667       0.13333333       0.20000000 </v>
    <v>       0.76666667       0.53333333       0.80000000 </v>
    <v>       0.70000000       0.40000000       0.60000000 </v>
    <v>       0.60000000       0.20000000       0.80000000 </v>
    <v>       0.53333333       0.06666667       0.60000000 </v>
    <v>       0.33333333       0.66666667       0.00000000 </v>
    <v>       0.23333333       0.46666667       0.20000000 </v>
   </varray>
  </structure>
  <varray name="forces" >
   <v>      -0.02414198       0.71982132       0.40924974 </v>
   <v>       0.23815846      -0.26133003       0.09580686 </v>
   <v>       0.09465836       0.21144607      -0.32829105 </v>
   <v>       0.13754045      -0.16630926      -0.09313692 </v>
   <v>       0.04415771       0.53625699      -0.51751568 </v>
   <v>      -0.46548703       0.02947756      -0.16185352 </v>
   <v>       0.30470738      -0.59329256       0.02917631 </v>
   <v>      -0.63429281      -0.34154847       0.49596268 </v>
   <v>      -0.01602775       0.07369490      -0.00680642 </v>
   <v>       0.24763971       0.49389213      -0.54640702 </v>
   <v>       0.05683229       0.18570899      -0.47906561 </v>
   <v>       0.06039677      -0.28492562       0.30493854 </v>
   <v>       0.54834686       0.41876145       0.00609717 </v>
   <v>      -0.40766800       0.42139907       0.07416408 </v>
   <v>      -0.47798832      -0.32016980       0.54458270 </v>
   <v>      -1.03261168       0.02000614       0.74138590 </v>
   <v>       0.33045092      -0.29249390      -0.33661780 </v>
   <v>       0.35515477       0.54444010       0.40232375 </v>
   <v>       0.43307161      -0.54698825       0.13558173 </v>
   <v>       0.09837739      -0.43745652      -0.29069950 </v>
   <v>      -0.27849611      -0.02963179      -0.31594921 </v>
   <v>      -0.30741154       0.14168429       1.03523405 </v>
   <v>       0.61610056      -0.33499879      -0.63936619 </v>
   <v>      -0.38931004      -0.36240745       0.48229842 </v>
   <v>       0.62915571       0.04539713      -0.88141927 </v>
   <v>      -0.13714463       0.52979354      -0.16549817 </v>
   <v>       0.06556199      -0.44262421      -0.70919384 </v>
   <v>      -0.22886564      -0.31179273       0.80536825 </v>
   <v>       0.13913459       0.35418970      -0.09034997 </v>
  </varray>
  <varray name="stress" >
   <v>     -17.79238719       0.57260375      -2.75430003 </v>
   <v>       0.57260372     -21.94868889      -1.75776317 </v>
   <v>      -2.75430014      -1.75776331     -16.86748961 </v>
  </varray>
  <energy>
   <i name="e_fr_energy">   -331.04247661 </i>
   <i name="e_wo_entrp">   -331.03703476 </i>
   <i name="e_0_energy">     -0.01632556 </i>
  </energy>
  <time name="totalsc">  559.37  560.22</time>
 </calculation>
 <calculation>
  <scstep>
   <time name="dav">   18.50   18.52</time>
   <time name="total">   19.13   19.15</time>
   <energy>
    <i name="alphaZ">   1332.03819805 </i>
    <i name="ewald"> -11551.93886970 </i>
    <i name="hartreedc">  -3116.90853276 </i>
    <i name="XCdc">   -834.87596786 </i>
    <i name="pawpsdc">  20994.97426382 </i>
    <i name="pawaedc"> -19501.94461836 </i>
    <i name="eentropy">     -0.01149040 </i>
    <i name="bandstr">   -646.66628790 </i>
    <i name="atom">  12993.56182891 </i>
    <i name="e_fr_energy">   -331.77147621 </i>
    <i name="e_wo_entrp">   -331.75998581 </i>
    <i name="e_0_energy">   -331.76764608 </i>
   </energy>
  </scstep>
  <scstep>
   <time name="dav">   25.09   25.12</time>
   <time name="total">   25.71   25.75</time>
   <energy>
    <i name="e_fr_energy">   -332.07509669 </i>
    <i name="e_wo_entrp">   -332.06208443 </i>
    <i name="e_0_energy">   -332.07075927 </i>
   </energy>
  </scstep>
  <scstep>
   <time name="dav">   25.64   25.67</time>
   <time name="total">   26.27   26.31</time>
   <energy>
    <i name="e_fr_energy">   -331.90496054 </i>
    <i name="e_wo_entrp">   -331.90116569 </i>
    <i name="e_0_energy">   -331.90369559 </i>
   </energy>
  </scstep>
  <scstep>
   <time name="dav">   26.02   26.05</time>
   <time name="total">   26.64   26.67</time>
   <energy>
    <i name="e_fr_energy">   -331.66371741 </i>
    <i name="e_wo_entrp">   -331.65113488 </i>
    <i name="e_0_energy">   -331.65952323 </i>
   </energy>
  </scstep>
  <scstep>
   <time name="dav">   25.34   25.37</time>
   <time name="total">   25.96   25.99</time>
   <energy>
    <i name="e_fr_energy">   -331.52259257 </i>
    <i name="e_wo_entrp">   -331.51283252 </i>
    <i name="e_0_energy">   -331.51933922 </i>
   </energy>
  </scstep>
  <scstep>
   <time name="dav">   27.49   27.52</time>
   <time name="total">   28.12   28.15</time>
   <energy>
    <i name="e_fr_energy">   -331.47177469 </i>
    <i name="e_wo_entrp">   -331.45878358 </i>
    <i name="e_0_energy">   -331.46744432 </i>
   </energy>
  </scstep>
  <scstep>
   <time name="dav">   27.99   28.02</time>
   <time name="total">   28.61   28.65</time>
   <energy>
    <i name="e_fr_energy">   -331.47196035 </i>
    <i name="e_wo_entrp">   -331.46079623 </i>
    <i name="e_0_energy">   -331.46823898 </i>
   </energy>
  </scstep>
  <scstep>
   <time name="dav">   26.45   26.48</time>
   <time name="total">   27.08   27.11</time>
   <energy>
    <i name="e_fr_energy">   -331.46762980 </i>
    <i name="e_wo_entrp">   -331.45575279 </i>
    <i name="e_0_energy">   -331.46367079 </i>
   </energy>
  </scstep>
  <scstep>
   <time name="dav">   25.92   25.95</time>
   <time name="total">   26.55   26.59</time>
   <energy>
    <i name="e_fr_energy">   -331.46856007 </i>
    <i name="e_wo_entrp">   -331.45646562 </i>
    <i name="e_0_energy">   -331.46452858 </i>
   </energy>
  </scstep>
  <scstep>
   <time name="dav">   25.37   25.40</time>
   <time name="total">   25.99   26.02</time>
   <energy>
    <i name="e_fr_energy">   -331.47105872 </i>
    <i name="e_wo_entrp">   -331.45918311 </i>
    <i name="e_0_energy">   -331.46710019 </i>
   </energy>
  </scstep>
  <scstep>
   <time name="dav">   25.62   25.65</time>
   <time name="total">   26.24   26.28</time>
   <energy>
    <i name="e_fr_energy">   -331.47162536 </i>
    <i name="e_wo_entrp">   -331.45962916 </i>
    <i name="e_0_energy">   -331.46762663 </i>
   </energy>
  </scstep>
  <scstep>
   <time name="dav">   24.92   24.95</time>
   <time name="total">   25.56   25.60</time>
   <energy>
    <i name="e_fr_energy">   -331.47146864 </i>
    <i name="e_wo_entrp">   -331.45946938 </i>
    <i name="e_0_energy">   -331.46746888 </i>
   </energy>
  </scstep>
  <scstep>
   <time name="dav">   23.52   23.55</time>
   <time name="total">   24.15   24.18</time>
   <energy>
    <i name="e_fr_energy">   -331.47152254 </i>
    <i name="e_wo_entrp">   -331.45948232 </i>
    <i name="e_0_energy">   -331.46750913 </i>
   </energy>
  </scstep>
  <scstep>
   <time name="dav">   17.56   17.58</time>
   <time name="total">   17.59   17.62</time>
   <energy>
    <i name="alphaZ">   1332.03819805 </i>
    <i name="ewald"> -11551.93886970 </i>
    <i name="hartreedc">  -3064.69462203 </i>
    <i name="XCdc">   -836.35241821 </i>
    <i name="pawpsdc">  21941.39967155 </i>
    <i name="pawaedc"> -20448.99348255 </i>
    <i name="eentropy">     -0.01198984 </i>
    <i name="bandstr">   -696.47981747 </i>
    <i name="atom">  12993.56182891 </i>
    <i name="e_fr_energy">   -331.47150129 </i>
    <i name="e_wo_entrp">   -331.45951146 </i>
    <i name="e_0_energy">   -331.46750468 </i>
   </energy>
  </scstep>
  <structure>
   <crystal>
    <varray name="basis" >
     <v>      -3.15778609      -3.15269007      -3.15551937 </v>
     <v>       1.59221933       1.58484972      -7.91062939 </v>
     <v>       7.90317407      -7.88277752      -1.58541618 </v>
    </varray>
    <i name="volume">    473.12086767 </i>
    <varray name="rec_basis" >
     <v>      -0.13711164      -0.12680639      -0.05300221 </v>
     <v>       0.04201026       0.06329255      -0.10527623 </v>
     <v>       0.06328359      -0.06341795       0.00003204 </v>
    </varray>
   </crystal>
   <varray name="positions" >
    <v>       0.96143899       0.93339879       0.39774980 </v>
    <v>       0.63311196       0.26587351       0.40151076 </v>
    <v>       0.49892805       0.00248534      -0.00035324 </v>
    <v>       0.00033945       0.00024382       0.00091903 </v>
    <v>       0.09777108       0.20431982       0.79851159 </v>
    <v>       0.03661346       0.06663312       0.59850292 </v>
    <v>       0.90151858       0.79867285       0.20271611 </v>
    <v>       0.80497276       0.59518779       0.39911456 </v>
    <v>       0.73300972       0.46689156       0.19972862 </v>
    <v>       0.66343336       0.33808096      -0.00074482 </v>
    <v>       0.13304498       0.26975795       0.39961020 </v>
    <v>       0.83389251       0.66438946       0.00104447 </v>
    <v>       0.92719127       0.86900822       0.80039195 </v>
    <v>       0.56660218       0.13341201       0.19749239 </v>
    <v>       0.40369657       0.79532253       0.19952266 </v>
    <v>       0.43811069       0.86090766       0.79681623 </v>
    <v>       0.30045226       0.60147854       0.40188417 </v>
    <v>       0.86003171       0.73366807       0.59942748 </v>
    <v>       0.46679573       0.93186868       0.40296431 </v>
    <v>       0.16940096       0.33367399       0.00162069 </v>
    <v>       0.26946735       0.53427485       0.79924728 </v>
    <v>       0.19854817       0.39459003       0.59864166 </v>
    <v>       0.06626717       0.13678546       0.20287671 </v>
    <v>       0.77019460       0.52902090       0.79991863 </v>
    <v>       0.69782394       0.40584921       0.60176565 </v>
    <v>       0.59811105       0.20216016       0.79798277 </v>
    <v>       0.53736875       0.06903517       0.60153707 </v>
    <v>       0.33468933       0.66120224       0.00025082 </v>
    <v>       0.23050669       0.46847397       0.19934954 </v>
   </varray>
  </structure>
  <varray name="forces" >
   <v>       0.05257987       0.30304496       0.17617024 </v>
   <v>       0.02313662      -0.00173555      -0.01140172 </v>
   <v>      -0.14518880       0.16622126       0.02315249 </v>
   <v>       0.06033969      -0.07909163      -0.13883823 </v>
   <v>      -0.04294139       0.09305480      -0.09057383 </v>
   <v>      -0.47820007      -0.16508757      -0.01549369 </v>
   <v>       0.04464823      -0.16746697       0.02655837 </v>
   <v>      -0.21192740      -0.18491605       0.17486787 </v>
   <v>       0.00053310      -0.05998254       0.14294820 </v>
   <v>       0.02485375       0.18906098      -0.17692837 </v>
   <v>       0.02312044      -0.00164753      -0.10719084 </v>
   <v>       0.06068286      -0.08442076       0.01789564 </v>
   <v>       0.05718690       0.08495018      -0.04341563 </v>
   <v>      -0.05728262       0.10595770       0.01830871 </v>
   <v>      -0.09796600      -0.18921061       0.08192599 </v>
   <v>      -0.43738815       0.29698049       0.56779658 </v>
   <v>       0.37903291      -0.51169119      -0.32211586 </v>
   <v>       0.23860088       0.42358841       0.37293647 </v>
   <v>       0.41576238      -0.43662653       0.25852123 </v>
   <v>       0.04016193      -0.24547077      -0.12695740 </v>
   <v>      -0.38459252       0.20762554      -0.26961428 </v>
   <v>      -0.09872431       0.18473640       0.41390041 </v>
   <v>       0.36960797      -0.21127726      -0.37760884 </v>
   <v>      -0.18325170      -0.15577016       0.10089057 </v>
   <v>       0.44789206       0.30279529      -0.54540526 </v>
   <v>       0.00199338       0.23855700      -0.16377467 </v>
   <v>      -0.03343090      -0.13163918      -0.26361462 </v>
   <v>      -0.13080087       0.02533606       0.27757062 </v>
   <v>       0.06156175       0.00412522      -0.00051014 </v>
  </varray>
  <varray name="stress" >
   <v>      44.58536239      -0.02167960      -0.29261254 </v>
   <v>      -0.02167973      43.39213366      -1.57787144 </v>
   <v>      -0.29261259      -1.57787151      44.88063735 </v>
  </varray>
  <energy>
   <i name="e_fr_energy">   -331.47150129 </i>
   <i name="e_wo_entrp">   -331.46750468 </i>
   <i name="e_0_energy">     -0.01198984 </i>
  </energy>
  <time name="totalsc">  371.59  372.23</time>
 </calculation>
 <calculation>
  <scstep>
   <time name="dav">   18.98   19.00</time>
   <time name="total">   19.62   19.72</time>
   <energy>
    <i name="alphaZ">   1330.24073831 </i>
    <i name="ewald"> -11545.31093987 </i>
    <i name="hartreedc">  -3064.80594572 </i>
    <i name="XCdc">   -836.51637277 </i>
    <i name="pawpsdc">  21940.80133794 </i>
    <i name="pawaedc"> -20448.32184489 </i>
    <i name="eentropy">     -0.01216814 </i>
    <i name="bandstr">   -701.10994524 </i>
    <i name="atom">  12993.56182891 </i>
    <i name="e_fr_energy">   -331.47331146 </i>
    <i name="e_wo_entrp">   -331.46114333 </i>
    <i name="e_0_energy">   -331.46925542 </i>
   </energy>
  </scstep>
  <scstep>
   <time name="dav">   25.71   25.74</time>
   <time name="total">   26.34   26.37</time>
   <energy>
    <i name="e_fr_energy">   -331.47397791 </i>
    <i name="e_wo_entrp">   -331.46200015 </i>
    <i name="e_0_energy">   -331.46998533 </i>
   </energy>
  </scstep>
  <scstep>
   <time name="dav">   25.29   25.35</time>
   <time name="total">   25.92   25.99</time>
   <energy>
    <i name="e_fr_energy">   -331.47397564 </i>
    <i name="e_wo_entrp">   -331.46157557 </i>
    <i name="e_0_energy">   -331.46984228 </i>
   </energy>
  </scstep>
  <scstep>
   <time name="dav">   23.68   23.74</time>
   <time name="total">   24.31   24.37</time>
   <energy>
    <i name="e_fr_energy">   -331.47315896 </i>
    <i name="e_wo_entrp">   -331.46111358 </i>
    <i name="e_0_energy">   -331.46914383 </i>
   </energy>
  </scstep>
  <scstep>
   <time name="dav">   25.01   25.06</time>
   <time name="total">   25.64   25.69</time>
   <energy>
    <i name="e_fr_energy">   -331.47281593 </i>
    <i name="e_wo_entrp">   -331.46056925 </i>
    <i name="e_0_energy">   -331.46873370 </i>
   </energy>
  </scstep>
  <scstep>
   <time name="dav">   21.54   21.57</time>
   <time name="total">   22.18   22.21</time>
   <energy>
    <i name="e_fr_energy">   -331.47273611 </i>
    <i name="e_wo_entrp">   -331.46062674 </i>
    <i name="e_0_energy">   -331.46869965 </i>
   </energy>
  </scstep>
  <scstep>
   <time name="dav">   15.98   16.00</time>
   <time name="total">   16.01   16.03</time>
   <energy>
    <i name="alphaZ">   1330.24073831 </i>
    <i name="ewald"> -11545.31093987 </i>
    <i name="hartreedc">  -3067.49750681 </i>
    <i name="XCdc">   -836.43638283 </i>
    <i name="pawpsdc">  21893.25643697 </i>
    <i name="pawaedc"> -20400.52102936 </i>
    <i name="eentropy">     -0.01220196 </i>
    <i name="bandstr">   -698.75365344 </i>
    <i name="atom">  12993.56182891 </i>
    <i name="e_fr_energy">   -331.47271007 </i>
    <i name="e_wo_entrp">   -331.46050812 </i>
    <i name="e_0_energy">   -331.46864275 </i>
   </energy>
  </scstep>
  <structure>
   <crystal>
    <varray name="basis" >
     <v>      -3.15929132      -3.15443342      -3.15713052 </v>
     <v>       1.59234926       1.58532400      -7.91363719 </v>
     <v>       7.90653023      -7.88708673      -1.58586400 </v>
    </varray>
    <i name="volume">    473.76016226 </i>
    <varray name="rec_basis" >
     <v>      -0.13705173      -0.12673958      -0.05296648 </v>
     <v>       0.04200028       0.06326440      -0.10523938 </v>
     <v>       0.06325588      -0.06338384       0.00003052 </v>
    </varray>
   </crystal>
   <varray name="positions" >
    <v>       0.96168618       0.93339550       0.39785611 </v>
    <v>       0.63312232       0.26591097       0.40143942 </v>
    <v>       0.49897852       0.00236830      -0.00033649 </v>
    <v>       0.00032329       0.00023242       0.00087564 </v>
    <v>       0.09787618       0.20411632       0.79858199 </v>
    <v>       0.03645868       0.06663459       0.59857355 </v>
    <v>       0.90144665       0.79873557       0.20258782 </v>
    <v>       0.80473834       0.59541428       0.39915618 </v>
    <v>       0.73302502       0.46688095       0.19974145 </v>
    <v>       0.66358579       0.33785738      -0.00070950 </v>
    <v>       0.13305840       0.26961238       0.39962867 </v>
    <v>       0.83386617       0.66449676       0.00099510 </v>
    <v>       0.92748118       0.86889799       0.80037359 </v>
    <v>       0.56660550       0.13340809       0.19761078 </v>
    <v>       0.40352238       0.79554271       0.19954504 </v>
    <v>       0.43788583       0.86117854       0.79696635 </v>
    <v>       0.30043057       0.60140910       0.40179524 </v>
    <v>       0.86034518       0.73365223       0.59945462 </v>
    <v>       0.46678943       0.93193788       0.40282432 </v>
    <v>       0.16927159       0.33365810       0.00154414 </v>
    <v>       0.26933506       0.53423047       0.79928280 </v>
    <v>       0.19861734       0.39484460       0.59870569 </v>
    <v>       0.06628545       0.13662318       0.20274098 </v>
    <v>       0.77002830       0.52922393       0.79992232 </v>
    <v>       0.69792607       0.40557398       0.60168245 </v>
    <v>       0.59820033       0.20205829       0.79807808 </v>
    <v>       0.53717776       0.06892381       0.60146449 </v>
    <v>       0.33462569       0.66145953       0.00023884 </v>
    <v>       0.23064014       0.46838882       0.19938033 </v>
   </varray>
  </structure>
  <varray name="forces" >
   <v>       0.04792058       0.33040887       0.19070334 </v>
   <v>       0.03506859      -0.01577960      -0.00521621 </v>
   <v>      -0.13376408       0.16952827       0.00562605 </v>
   <v>       0.06280302      -0.08422410      -0.13640690 </v>
   <v>      -0.03816159       0.11473105      -0.11214595 </v>
   <v>      -0.48175372      -0.15458512      -0.02540324 </v>
   <v>       0.05835937      -0.19258932       0.02952599 </v>
   <v>      -0.23636474      -0.19390899       0.19320388 </v>
   <v>       0.00024085      -0.05159237       0.13296504 </v>
   <v>       0.03775665       0.20572841      -0.19918033 </v>
   <v>       0.02759026       0.00967604      -0.12963248 </v>
   <v>       0.05673966      -0.09949973       0.02892923 </v>
   <v>       0.08796978       0.10487104      -0.03477104 </v>
   <v>      -0.07856553       0.11710850       0.02100699 </v>
   <v>      -0.11639812      -0.18934255       0.10745605 </v>
   <v>      -0.46564914       0.28259894       0.57604402 </v>
   <v>       0.37595312      -0.50141076      -0.31802059 </v>
   <v>       0.24605209       0.42987792       0.37784075 </v>
   <v>       0.41685231      -0.44414808       0.25025305 </v>
   <v>       0.04388401      -0.25696147      -0.13839806 </v>
   <v>      -0.37671881       0.19294804      -0.27369996 </v>
   <v>      -0.10992620       0.18504778       0.44598685 </v>
   <v>       0.38326100      -0.21451578      -0.39275295 </v>
   <v>      -0.19453299      -0.16591067       0.12234746 </v>
   <v>       0.45835643       0.28795590      -0.56669881 </v>
   <v>      -0.00653759       0.25389815      -0.16358557 </v>
   <v>      -0.02713698      -0.14914794      -0.28820212 </v>
   <v>      -0.13708458       0.00568664       0.30630257 </v>
   <v>       0.06378638       0.02355094      -0.00407706 </v>
  </varray>
  <varray name="stress" >
   <v>      41.66044678      -0.05137417      -0.35694846 </v>
   <v>      -0.05137421      40.27926760      -1.52608262 </v>
   <v>      -0.35694833      -1.52608264      41.89123489 </v>
  </varray>
  <energy>
   <i name="e_fr_energy">   -331.47271007 </i>
   <i name="e_wo_entrp">   -331.46864275 </i>
   <i name="e_0_energy">     -0.01220196 </i>
  </energy>
  <time name="totalsc">  178.10  178.55</time>
 </calculation>
 <calculation>
  <scstep>
   <time name="dav">   18.64   18.66</time>
   <time name="total">   19.27   19.30</time>
   <energy>
    <i name="alphaZ">   1313.78700239 </i>
    <i name="ewald"> -11520.43354761 </i>
    <i name="hartreedc">  -3032.45647496 </i>
    <i name="XCdc">   -838.11669203 </i>
    <i name="pawpsdc">  21893.51870522 </i>
    <i name="pawaedc"> -20400.80135488 </i>
    <i name="eentropy">     -0.00970328 </i>
    <i name="bandstr">   -740.76780061 </i>
    <i name="atom">  12993.56182891 </i>
    <i name="e_fr_energy">   -331.71803685 </i>
    <i name="e_wo_entrp">   -331.70833357 </i>
    <i name="e_0_energy">   -331.71480242 </i>
   </energy>
  </scstep>
  <scstep>
   <time name="dav">   24.48   24.51</time>
   <time name="total">   25.11   25.15</time>
   <energy>
    <i name="e_fr_energy">   -331.84942866 </i>
    <i name="e_wo_entrp">   -331.83540518 </i>
    <i name="e_0_energy">   -331.84475417 </i>
   </energy>
  </scstep>
  <scstep>
   <time name="dav">   25.85   25.88</time>
   <time name="total">   26.48   26.51</time>
   <energy>
    <i name="e_fr_energy">   -331.84797659 </i>
    <i name="e_wo_entrp">   -331.83875096 </i>
    <i name="e_0_energy">   -331.84490138 </i>
   </energy>
  </scstep>
  <scstep>
   <time name="dav">   25.71   25.75</time>
   <time name="total">   26.34   26.37</time>
   <energy>
    <i name="e_fr_energy">   -331.76694127 </i>
    <i name="e_wo_entrp">   -331.75424824 </i>
    <i name="e_0_energy">   -331.76271026 </i>
   </energy>
  </scstep>
  <scstep>
   <time name="dav">   25.76   25.79</time>
   <time name="total">   26.39   26.43</time>
   <energy>
    <i name="e_fr_energy">   -331.76494604 </i>
    <i name="e_wo_entrp">   -331.75409234 </i>
    <i name="e_0_energy">   -331.76132814 </i>
   </energy>
  </scstep>
  <scstep>
   <time name="dav">   26.86   26.89</time>
   <time name="total">   27.49   27.52</time>
   <energy>
    <i name="e_fr_energy">   -331.75497659 </i>
    <i name="e_wo_entrp">   -331.74200492 </i>
    <i name="e_0_energy">   -331.75065270 </i>
   </energy>
  </scstep>
  <scstep>
   <time name="dav">   27.71   27.74</time>
   <time name="total">   28.34   28.37</time>
   <energy>
    <i name="e_fr_energy">   -331.75335165 </i>
    <i name="e_wo_entrp">   -331.74132901 </i>
    <i name="e_0_energy">   -331.74934410 </i>
   </energy>
  </scstep>
  <scstep>
   <time name="dav">   24.60   24.63</time>
   <time name="total">   25.24   25.28</time>
   <energy>
    <i name="e_fr_energy">   -331.75253616 </i>
    <i name="e_wo_entrp">   -331.74017556 </i>
    <i name="e_0_energy">   -331.74841596 </i>
   </energy>
  </scstep>
  <scstep>
   <time name="dav">   23.76   23.80</time>
   <time name="total">   24.39   24.43</time>
   <energy>
    <i name="e_fr_energy">   -331.75255212 </i>
    <i name="e_wo_entrp">   -331.74039109 </i>
    <i name="e_0_energy">   -331.74849844 </i>
   </energy>
  </scstep>
  <scstep>
   <time name="dav">   22.75   22.79</time>
   <time name="total">   23.38   23.42</time>
   <energy>
    <i name="e_fr_energy">   -331.75273407 </i>
    <i name="e_wo_entrp">   -331.74041276 </i>
    <i name="e_0_energy">   -331.74862697 </i>
   </energy>
  </scstep>
  <scstep>
   <time name="dav">   24.44   24.47</time>
   <time name="total">   25.07   25.11</time>
   <energy>
    <i name="e_fr_energy">   -331.75284683 </i>
    <i name="e_wo_entrp">   -331.74068298 </i>
    <i name="e_0_energy">   -331.74879221 </i>
   </energy>
  </scstep>
  <scstep>
   <time name="dav">   23.83   23.86</time>
   <time name="total">   24.46   24.49</time>
   <energy>
    <i name="e_fr_energy">   -331.75290811 </i>
    <i name="e_wo_entrp">   -331.74066129 </i>
    <i name="e_0_energy">   -331.74882584 </i>
   </energy>
  </scstep>
  <scstep>
   <time name="dav">   19.57   19.59</time>
   <time name="total">   19.60   19.62</time>
   <energy>
    <i name="alphaZ">   1313.78700239 </i>
    <i name="ewald"> -11520.43354761 </i>
    <i name="hartreedc">  -3053.01489456 </i>
    <i name="XCdc">   -837.44672168 </i>
    <i name="pawpsdc">  21456.78205032 </i>
    <i name="pawaedc"> -19964.37564512 </i>
    <i name="eentropy">     -0.01223059 </i>
    <i name="bandstr">   -720.60066411 </i>
    <i name="atom">  12993.56182891 </i>
    <i name="e_fr_energy">   -331.75282204 </i>
    <i name="e_wo_entrp">   -331.74059145 </i>
    <i name="e_0_energy">   -331.74874518 </i>
   </energy>
  </scstep>
  <structure>
   <crystal>
    <varray name="basis" >
     <v>      -3.17158178      -3.16264639      -3.16753381 </v>
     <v>       1.60548164       1.59646171      -7.95366060 </v>
     <v>       7.94223412      -7.91029308      -1.59336948 </v>
    </varray>
    <i name="volume">    479.69348676 </i>
    <varray name="rec_basis" >
     <v>      -0.13646118      -0.12635508      -0.05290733 </v>
     <v>       0.04172843       0.06297938      -0.10466396 </v>
     <v>       0.06298076      -0.06318848       0.00002973 </v>
    </varray>
   </crystal>
   <varray name="positions" >
    <v>       0.95799568       0.93348702       0.39641823 </v>
    <v>       0.63296607       0.26555491       0.40222355 </v>
    <v>       0.49839954       0.00363917      -0.00089960 </v>
    <v>       0.00067674       0.00058685       0.00150354 </v>
    <v>       0.09674902       0.20652342       0.79767443 </v>
    <v>       0.03980315       0.06605810       0.59743788 </v>
    <v>       0.90247548       0.79784059       0.20420560 </v>
    <v>       0.80805806       0.59226063       0.39868264 </v>
    <v>       0.73286003       0.46663343       0.19967998 </v>
    <v>       0.66162624       0.34083860      -0.00128385 </v>
    <v>       0.13296149       0.27139431       0.39946593 </v>
    <v>       0.83419918       0.66327382       0.00169529 </v>
    <v>       0.92408035       0.87029495       0.80053618 </v>
    <v>       0.56646568       0.13348642       0.19616461 </v>
    <v>       0.40597952       0.79274747       0.19941510 </v>
    <v>       0.44009775       0.85717183       0.79448264 </v>
    <v>       0.30124180       0.60246851       0.40383160 </v>
    <v>       0.85496708       0.73376569       0.59894175 </v>
    <v>       0.46656322       0.93048274       0.40535345 </v>
    <v>       0.17126965       0.33382123       0.00270614 </v>
    <v>       0.27152268       0.53519464       0.79818435 </v>
    <v>       0.19726381       0.39146340       0.59767763 </v>
    <v>       0.06600805       0.13915787       0.20488430 </v>
    <v>       0.77254875       0.52653219       0.79984840 </v>
    <v>       0.69547425       0.41033954       0.60274022 </v>
    <v>       0.59683713       0.20376173       0.79677959 </v>
    <v>       0.53987819       0.07045068       0.60235373 </v>
    <v>       0.33530425       0.65809656       0.00017401 </v>
    <v>       0.22906049       0.46934039       0.19912268 </v>
   </varray>
  </structure>
  <varray name="forces" >
   <v>       0.08633599       0.13466324       0.07768384 </v>
   <v>      -0.02380051       0.09873704      -0.09303285 </v>
   <v>      -0.30644593       0.11006114       0.18628851 </v>
   <v>       0.03525093      -0.02845379      -0.07430938 </v>
   <v>      -0.07780549      -0.12223011       0.16749092 </v>
   <v>      -0.29400850      -0.15283583      -0.03114353 </v>
   <v>      -0.13599274       0.06517348       0.04226644 </v>
   <v>      -0.03989280      -0.07745782       0.00535077 </v>
   <v>       0.03949633      -0.06854843       0.14056045 </v>
   <v>      -0.09535671       0.01741096       0.04200569 </v>
   <v>      -0.00707057      -0.07969469       0.07002262 </v>
   <v>       0.08396581       0.05687397      -0.12233704 </v>
   <v>      -0.03206086      -0.04054885      -0.06128195 </v>
   <v>       0.09862553      -0.03978111      -0.03114298 </v>
   <v>       0.06513082      -0.10844334      -0.06634147 </v>
   <v>      -0.11139992       0.28348293       0.33886833 </v>
   <v>       0.21320588      -0.42799398      -0.20718105 </v>
   <v>       0.18950216       0.33075852       0.29645225 </v>
   <v>       0.29734896      -0.27893179       0.22246079 </v>
   <v>      -0.02368117      -0.09561170      -0.07105755 </v>
   <v>      -0.33024009       0.22066722      -0.16486777 </v>
   <v>       0.00236591       0.18599984       0.12642406 </v>
   <v>       0.22421264      -0.13206586      -0.19942425 </v>
   <v>      -0.00161022      -0.07342866      -0.14171613 </v>
   <v>       0.19544837       0.27209782      -0.16235871 </v>
   <v>       0.00447379       0.03208124      -0.10661438 </v>
   <v>      -0.06863157      -0.03098753      -0.09432832 </v>
   <v>      -0.02582063       0.15761202      -0.06667748 </v>
   <v>       0.03845457      -0.20860594      -0.02205986 </v>
  </varray>
  <varray name="stress" >
   <v>      14.09708963       0.22186888       0.55262694 </v>
   <v>       0.22186898      14.66498976      -0.89138825 </v>
   <v>       0.55262702      -0.89138820      14.14123564 </v>
  </varray>
  <energy>
   <i name="e_fr_energy">   -331.75282204 </i>
   <i name="e_wo_entrp">   -331.74874518 </i>
   <i name="e_0_energy">     -0.01223059 </i>
  </energy>
  <time name="totalsc">  339.52  339.97</time>
 </calculation>
 <calculation>
  <scstep>
   <time name="dav">   18.43   18.45</time>
   <time name="total">   19.05   19.08</time>
   <energy>
    <i name="alphaZ">   1305.06748296 </i>
    <i name="ewald"> -11506.11164221 </i>
    <i name="hartreedc">  -3035.02482686 </i>
    <i name="XCdc">   -838.34636382 </i>
    <i name="pawpsdc">  21456.71927120 </i>
    <i name="pawaedc"> -19964.36206250 </i>
    <i name="eentropy">     -0.01129327 </i>
    <i name="bandstr">   -743.27681761 </i>
    <i name="atom">  12993.56182891 </i>
    <i name="e_fr_energy">   -331.78442321 </i>
    <i name="e_wo_entrp">   -331.77312994 </i>
    <i name="e_0_energy">   -331.78065879 </i>
   </energy>
  </scstep>
  <scstep>
   <time name="dav">   24.19   24.23</time>
   <time name="total">   24.82   24.86</time>
   <energy>
    <i name="e_fr_energy">   -331.82149533 </i>
    <i name="e_wo_entrp">   -331.80787859 </i>
    <i name="e_0_energy">   -331.81695641 </i>
   </energy>
  </scstep>
  <scstep>
   <time name="dav">   25.00   25.04</time>
   <time name="total">   25.65   25.70</time>
   <energy>
    <i name="e_fr_energy">   -331.81949766 </i>
    <i name="e_wo_entrp">   -331.80866597 </i>
    <i name="e_0_energy">   -331.81588709 </i>
   </energy>
  </scstep>
  <scstep>
   <time name="dav">   24.95   25.20</time>
   <time name="total">   25.57   25.83</time>
   <energy>
    <i name="e_fr_energy">   -331.79723978 </i>
    <i name="e_wo_entrp">   -331.78446577 </i>
    <i name="e_0_energy">   -331.79298178 </i>
   </energy>
  </scstep>
  <scstep>
   <time name="dav">   25.37   25.41</time>
   <time name="total">   26.00   26.04</time>
   <energy>
    <i name="e_fr_energy">   -331.79642927 </i>
    <i name="e_wo_entrp">   -331.78439115 </i>
    <i name="e_0_energy">   -331.79241656 </i>
   </energy>
  </scstep>
  <scstep>
   <time name="dav">   26.97   27.01</time>
   <time name="total">   27.60   27.64</time>
   <energy>
    <i name="e_fr_energy">   -331.79385315 </i>
    <i name="e_wo_entrp">   -331.78102946 </i>
    <i name="e_0_energy">   -331.78957858 </i>
   </energy>
  </scstep>
  <scstep>
   <time name="dav">   25.69   25.73</time>
   <time name="total">   26.32   26.35</time>
   <energy>
    <i name="e_fr_energy">   -331.79340278 </i>
    <i name="e_wo_entrp">   -331.78105368 </i>
    <i name="e_0_energy">   -331.78928642 </i>
   </energy>
  </scstep>
  <scstep>
   <time name="dav">   23.16   23.19</time>
   <time name="total">   23.79   23.82</time>
   <energy>
    <i name="e_fr_energy">   -331.79318807 </i>
    <i name="e_wo_entrp">   -331.78059246 </i>
    <i name="e_0_energy">   -331.78898953 </i>
   </energy>
  </scstep>
  <scstep>
   <time name="dav">   22.39   22.42</time>
   <time name="total">   23.03   23.07</time>
   <energy>
    <i name="e_fr_energy">   -331.79320016 </i>
    <i name="e_wo_entrp">   -331.78076739 </i>
    <i name="e_0_energy">   -331.78905590 </i>
   </energy>
  </scstep>
  <scstep>
   <time name="dav">   18.45   18.48</time>
   <time name="total">   18.49   18.51</time>
   <energy>
    <i name="alphaZ">   1305.06748296 </i>
    <i name="ewald"> -11506.11164221 </i>
    <i name="hartreedc">  -3046.49014729 </i>
    <i name="XCdc">   -837.97624848 </i>
    <i name="pawpsdc">  21242.78619413 </i>
    <i name="pawaedc"> -19750.21625989 </i>
    <i name="eentropy">     -0.01256926 </i>
    <i name="bandstr">   -732.40188459 </i>
    <i name="atom">  12993.56182891 </i>
    <i name="e_fr_energy">   -331.79324572 </i>
    <i name="e_wo_entrp">   -331.78067646 </i>
    <i name="e_0_energy">   -331.78905596 </i>
   </energy>
  </scstep>
  <structure>
   <crystal>
    <varray name="basis" >
     <v>      -3.17817995      -3.16705554      -3.17311884 </v>
     <v>       1.61253180       1.60244103      -7.97514728 </v>
     <v>       7.96140186      -7.92275147      -1.59739883 </v>
    </varray>
    <i name="volume">    482.89845258 </i>
    <varray name="rec_basis" >
     <v>      -0.13614632      -0.12614970      -0.05287523 </v>
     <v>       0.04158386       0.06282748      -0.10435762 </v>
     <v>       0.06283406      -0.06308409       0.00002926 </v>
    </varray>
   </crystal>
   <varray name="positions" >
    <v>       0.95601975       0.93353664       0.39564866 </v>
    <v>       0.63288290       0.26536445       0.40264296 </v>
    <v>       0.49809000       0.00431800      -0.00120095 </v>
    <v>       0.00086660       0.00077581       0.00183941 </v>
    <v>       0.09614653       0.20780908       0.79718870 </v>
    <v>       0.04159151       0.06575068       0.59683095 </v>
    <v>       0.90302682       0.79736198       0.20507108 </v>
    <v>       0.80983222       0.59057689       0.39843002 </v>
    <v>       0.73277154       0.46650131       0.19964709 </v>
    <v>       0.66057894       0.34243068      -0.00159151 </v>
    <v>       0.13291054       0.27234582       0.39937875 </v>
    <v>       0.83437725       0.66262053       0.00206991 </v>
    <v>       0.92226150       0.87104086       0.80062258 </v>
    <v>       0.56638972       0.13352887       0.19539109 </v>
    <v>       0.40729261       0.79125497       0.19934612 </v>
    <v>       0.44127697       0.85503353       0.79315478 </v>
    <v>       0.30167819       0.60303325       0.40492081 </v>
    <v>       0.85208891       0.73382667       0.59866669 </v>
    <v>       0.46644342       0.92970469       0.40670624 </v>
    <v>       0.17233988       0.33390776       0.00332790 </v>
    <v>       0.27269293       0.53570985       0.79759707 </v>
    <v>       0.19653672       0.38965855       0.59712779 </v>
    <v>       0.06586286       0.14051029       0.20603046 </v>
    <v>       0.77389582       0.52509494       0.79980938 </v>
    <v>       0.69416592       0.41288365       0.60330534 </v>
    <v>       0.59610760       0.20467186       0.79608478 </v>
    <v>       0.54132481       0.07126545       0.60282962 </v>
    <v>       0.33566533       0.65630097       0.00013966 </v>
    <v>       0.22821555       0.46984863       0.19898459 </v>
   </varray>
  </structure>
  <varray name="forces" >
   <v>       0.11016779       0.02474919       0.01972511 </v>
   <v>      -0.05801533       0.15990373      -0.14350609 </v>
   <v>      -0.39295946       0.07292323       0.27764376 </v>
   <v>       0.02430921       0.00208198      -0.04155697 </v>
   <v>      -0.09808963      -0.25059901       0.31598712 </v>
   <v>      -0.19138909      -0.15415236      -0.02941868 </v>
   <v>      -0.24004570       0.20024156       0.05955629 </v>
   <v>       0.06085398      -0.01345525      -0.10170930 </v>
   <v>       0.05839675      -0.07846313       0.13548711 </v>
   <v>      -0.16390017      -0.08227746       0.17338071 </v>
   <v>      -0.03073917      -0.11810285       0.17314728 </v>
   <v>       0.09375843       0.12874969      -0.19576278 </v>
   <v>      -0.07297858      -0.10281918      -0.06223250 </v>
   <v>       0.17609058      -0.13756501      -0.07816800 </v>
   <v>       0.15568321      -0.06245728      -0.14590246 </v>
   <v>       0.06472446       0.27900595       0.20410206 </v>
   <v>       0.13378471      -0.38759931      -0.14846365 </v>
   <v>       0.15512920       0.27044900       0.25201795 </v>
   <v>       0.23256003      -0.19340747       0.20839289 </v>
   <v>      -0.06330837      -0.00044574      -0.02636118 </v>
   <v>      -0.29292673       0.23447425      -0.10468274 </v>
   <v>       0.06140064       0.18463637      -0.04308334 </v>
   <v>       0.14021502      -0.07704617      -0.11410544 </v>
   <v>       0.10901170      -0.01919599      -0.28974833 </v>
   <v>       0.05524172       0.26285480       0.05541481 </v>
   <v>       0.01913831      -0.08297820      -0.08157806 </v>
   <v>      -0.10068183       0.02615212       0.01336779 </v>
   <v>       0.03364859       0.23921254      -0.25486446 </v>
   <v>       0.02091974      -0.32487000      -0.02707892 </v>
  </varray>
  <varray name="stress" >
   <v>       1.55705752       0.09894128       0.94270673 </v>
   <v>       0.09894118       3.12729724      -0.64039245 </v>
   <v>       0.94270674      -0.64039232       1.08544878 </v>
  </varray>
  <energy>
   <i name="e_fr_energy">   -331.79324572 </i>
   <i name="e_wo_entrp">   -331.78905596 </i>
   <i name="e_0_energy">     -0.01256926 </i>
  </energy>
  <time name="totalsc">  258.08  258.69</time>
 </calculation>
 <calculation>
  <scstep>
   <time name="dav">   19.42   19.44</time>
   <time name="total">   20.05   20.07</time>
   <energy>
    <i name="alphaZ">   1302.86157647 </i>
    <i name="ewald"> -11500.95542267 </i>
    <i name="hartreedc">  -3043.75622780 </i>
    <i name="XCdc">   -838.20468452 </i>
    <i name="pawpsdc">  21239.71006391 </i>
    <i name="pawaedc"> -19747.35681076 </i>
    <i name="eentropy">     -0.01338196 </i>
    <i name="bandstr">   -737.67312731 </i>
    <i name="atom">  12993.56182891 </i>
    <i name="e_fr_energy">   -331.82618573 </i>
    <i name="e_wo_entrp">   -331.81280377 </i>
    <i name="e_0_energy">   -331.82172507 </i>
   </energy>
  </scstep>
  <scstep>
   <time name="dav">   25.53   25.56</time>
   <time name="total">   26.16   26.20</time>
   <energy>
    <i name="e_fr_energy">   -331.84471991 </i>
    <i name="e_wo_entrp">   -331.83023242 </i>
    <i name="e_0_energy">   -331.83989075 </i>
   </energy>
  </scstep>
  <scstep>
   <time name="dav">   25.75   25.77</time>
   <time name="total">   26.37   26.40</time>
   <energy>
    <i name="e_fr_energy">   -331.83928411 </i>
    <i name="e_wo_entrp">   -331.82597866 </i>
    <i name="e_0_energy">   -331.83484896 </i>
   </energy>
  </scstep>
  <scstep>
   <time name="dav">   25.26   25.29</time>
   <time name="total">   25.89   25.92</time>
   <energy>
    <i name="e_fr_energy">   -331.83800660 </i>
    <i name="e_wo_entrp">   -331.82397137 </i>
    <i name="e_0_energy">   -331.83332819 </i>
   </energy>
  </scstep>
  <scstep>
   <time name="dav">   24.92   24.94</time>
   <time name="total">   25.55   25.58</time>
   <energy>
    <i name="e_fr_energy">   -331.83761427 </i>
    <i name="e_wo_entrp">   -331.82395070 </i>
    <i name="e_0_energy">   -331.83305975 </i>
   </energy>
  </scstep>
  <scstep>
   <time name="dav">   25.39   25.42</time>
   <time name="total">   26.02   26.05</time>
   <energy>
    <i name="e_fr_energy">   -331.83753903 </i>
    <i name="e_wo_entrp">   -331.82345505 </i>
    <i name="e_0_energy">   -331.83284437 </i>
   </energy>
  </scstep>
  <scstep>
   <time name="dav">   24.24   24.27</time>
   <time name="total">   24.86   24.89</time>
   <energy>
    <i name="e_fr_energy">   -331.83708312 </i>
    <i name="e_wo_entrp">   -331.82328344 </i>
    <i name="e_0_energy">   -331.83248322 </i>
   </energy>
  </scstep>
  <scstep>
   <time name="dav">   19.03   19.06</time>
   <time name="total">   19.07   19.10</time>
   <energy>
    <i name="alphaZ">   1302.86157647 </i>
    <i name="ewald"> -11500.95542267 </i>
    <i name="hartreedc">  -3046.61091852 </i>
    <i name="XCdc">   -838.11665290 </i>
    <i name="pawpsdc">  21165.36837801 </i>
    <i name="pawaedc"> -19672.98350542 </i>
    <i name="eentropy">     -0.01389067 </i>
    <i name="bandstr">   -734.94843268 </i>
    <i name="atom">  12993.56182891 </i>
    <i name="e_fr_energy">   -331.83703948 </i>
    <i name="e_wo_entrp">   -331.82314880 </i>
    <i name="e_0_energy">   -331.83240925 </i>
   </energy>
  </scstep>
  <structure>
   <crystal>
    <varray name="basis" >
     <v>      -3.18045660      -3.16920807      -3.17443708 </v>
     <v>       1.61173431       1.60516685      -7.97813832 </v>
     <v>       7.96473709      -7.92879462      -1.59503377 </v>
    </varray>
    <i name="volume">    483.71605964 </i>
    <varray name="rec_basis" >
     <v>      -0.13606601      -0.12605123      -0.05284886 </v>
     <v>       0.04158321       0.06275684      -0.10431553 </v>
     <v>       0.06280520      -0.06303382       0.00000570 </v>
    </varray>
   </crystal>
   <varray name="positions" >
    <v>       0.95548711       0.93363185       0.39573300 </v>
    <v>       0.63277225       0.26586952       0.40235094 </v>
    <v>       0.49874873       0.00342448      -0.00188189 </v>
    <v>       0.00084462       0.00090967       0.00188756 </v>
    <v>       0.09675999       0.20667071       0.79738459 </v>
    <v>       0.04274952       0.06540413       0.59674892 </v>
    <v>       0.90315099       0.79725631       0.20448292 </v>
    <v>       0.80989140       0.59077446       0.39852392 </v>
    <v>       0.73264854       0.46611628       0.19984166 </v>
    <v>       0.66106298       0.34182417      -0.00172265 </v>
    <v>       0.13313394       0.27178333       0.39950016 </v>
    <v>       0.83396153       0.66332611       0.00203735 </v>
    <v>       0.92276856       0.87100904       0.80066999 </v>
    <v>       0.56632939       0.13368651       0.19580237 </v>
    <v>       0.40722933       0.79158647       0.19965485 </v>
    <v>       0.44008781       0.85490457       0.79278211 </v>
[...]
       <r>    4.5903    1.0000 </r>
       <r>    4.6947    1.0000 </r>
       <r>    4.7463    1.0000 </r>
       <r>    4.7932    1.0000 </r>
       <r>    4.8543    1.0000 </r>
       <r>    4.9062    1.0000 </r>
       <r>    4.9250    1.0000 </r>
       <r>    4.9795    1.0000 </r>
       <r>    5.0267    1.0000 </r>
       <r>    5.0954    1.0000 </r>
       <r>    5.1511    1.0000 </r>
       <r>    5.1800    1.0000 </r>
       <r>    5.2603    1.0000 </r>
       <r>    5.3120    1.0000 </r>
       <r>    5.3611    1.0000 </r>
       <r>    5.4283    1.0000 </r>
       <r>    5.4744    1.0000 </r>
       <r>    5.5048    1.0000 </r>
       <r>    5.5831    1.0000 </r>
       <r>    5.6351    1.0000 </r>
       <r>    5.7156    1.0000 </r>
       <r>    5.7539    1.0000 </r>
       <r>    5.8197    1.0000 </r>
       <r>    5.9183    1.0000 </r>
       <r>    5.9696    1.0000 </r>
       <r>    5.9947    1.0000 </r>
       <r>    6.0313    1.0000 </r>
       <r>    6.1014    1.0000 </r>
       <r>    6.1599    1.0001 </r>
       <r>    6.2263    1.0004 </r>
       <r>    6.2577    1.0008 </r>
       <r>    6.2813    1.0014 </r>
       <r>    6.3569    1.0060 </r>
       <r>    6.4384    1.0195 </r>
       <r>    6.4656    1.0257 </r>
       <r>    6.5374    1.0352 </r>
       <r>    6.5682    1.0279 </r>
       <r>    6.6197    0.9826 </r>
       <r>    6.6789    0.8568 </r>
       <r>    6.7474    0.6122 </r>
       <r>    6.8749    0.1278 </r>
       <r>    6.9083    0.0508 </r>
       <r>    7.0115   -0.0352 </r>
       <r>    7.1198   -0.0173 </r>
       <r>    7.2454   -0.0021 </r>
       <r>    7.3062   -0.0005 </r>
       <r>    7.4466   -0.0000 </r>
       <r>    7.5912   -0.0000 </r>
       <r>    7.6978   -0.0000 </r>
       <r>    7.8437   -0.0000 </r>
       <r>    7.9159   -0.0000 </r>
       <r>    8.1014   -0.0000 </r>
       <r>    8.2051   -0.0000 </r>
       <r>    8.4104   -0.0000 </r>
       <r>    8.5427   -0.0000 </r>
       <r>    8.6743   -0.0000 </r>
       <r>    8.7419   -0.0000 </r>
       <r>    8.7720   -0.0000 </r>
       <r>    8.8372   -0.0000 </r>
       <r>    8.9434   -0.0000 </r>
       <r>    8.9882   -0.0000 </r>
      </set>
     </set>
    </set>
   </array>
  </eigenvalues>
  <separator name="orbital magnetization" >
   <v name="MAGDIPOLOUT">      0.00000000      0.00000000      0.00000000</v>
  </separator>
  <dos>
   <i name="efermi">      6.77412365 </i>
   <total>
    <array>
     <dimension dim="1">gridpoints</dimension>
     <dimension dim="2">spin</dimension>
     <field>energy</field>
     <field>total</field>
     <field>integrated</field>
     <set>
      <set comment="spin 1">
       <r>   -50.2209     0.0000     0.0000 </r>
       <r>   -50.0135     0.0000     0.0000 </r>
       <r>   -49.8060     0.0000     0.0000 </r>
       <r>   -49.5985     0.0000     0.0000 </r>
       <r>   -49.3911     0.0000     0.0000 </r>
       <r>   -49.1836    -0.0000    -0.0000 </r>
       <r>   -48.9761    -0.0000    -0.0000 </r>
       <r>   -48.7686    -0.0000    -0.0000 </r>
       <r>   -48.5612    -0.0000    -0.0000 </r>
       <r>   -48.3537    -0.0000    -0.0000 </r>
       <r>   -48.1462    -0.0000    -0.0000 </r>
       <r>   -47.9388    -0.0038    -0.0008 </r>
       <r>   -47.7313    -0.2246    -0.0474 </r>
       <r>   -47.5238    -0.1463    -0.0777 </r>
       <r>   -47.3164    13.4023     2.7028 </r>
       <r>   -47.1089    29.5026     8.8237 </r>
       <r>   -46.9014    15.5326    12.0462 </r>
       <r>   -46.6940     0.0569    12.0580 </r>
       <r>   -46.4865    -0.2748    12.0010 </r>
       <r>   -46.2790    -0.0048    12.0000 </r>
       <r>   -46.0716    -0.0000    12.0000 </r>
       <r>   -45.8641    -0.0000    12.0000 </r>
       <r>   -45.6566    -0.0000    12.0000 </r>
       <r>   -45.4492     0.0000    12.0000 </r>
       <r>   -45.2417     0.0000    12.0000 </r>
       <r>   -45.0342     0.0000    12.0000 </r>
       <r>   -44.8268     0.0000    12.0000 </r>
       <r>   -44.6193     0.0000    12.0000 </r>
       <r>   -44.4118     0.0000    12.0000 </r>
       <r>   -44.2043     0.0000    12.0000 </r>
       <r>   -43.9969     0.0000    12.0000 </r>
       <r>   -43.7894     0.0000    12.0000 </r>
       <r>   -43.5819     0.0000    12.0000 </r>
       <r>   -43.3745     0.0000    12.0000 </r>
       <r>   -43.1670     0.0000    12.0000 </r>
       <r>   -42.9595     0.0000    12.0000 </r>
       <r>   -42.7521     0.0000    12.0000 </r>
       <r>   -42.5446     0.0000    12.0000 </r>
       <r>   -42.3371     0.0000    12.0000 </r>
       <r>   -42.1297     0.0000    12.0000 </r>
       <r>   -41.9222     0.0000    12.0000 </r>
       <r>   -41.7147     0.0000    12.0000 </r>
       <r>   -41.5073     0.0000    12.0000 </r>
       <r>   -41.2998     0.0000    12.0000 </r>
       <r>   -41.0923     0.0000    12.0000 </r>
       <r>   -40.8849     0.0000    12.0000 </r>
       <r>   -40.6774     0.0000    12.0000 </r>
       <r>   -40.4699     0.0000    12.0000 </r>
       <r>   -40.2625     0.0000    12.0000 </r>
       <r>   -40.0550     0.0000    12.0000 </r>
       <r>   -39.8475     0.0000    12.0000 </r>
       <r>   -39.6400     0.0000    12.0000 </r>
       <r>   -39.4326     0.0000    12.0000 </r>
       <r>   -39.2251     0.0000    12.0000 </r>
       <r>   -39.0176     0.0000    12.0000 </r>
       <r>   -38.8102     0.0000    12.0000 </r>
       <r>   -38.6027     0.0000    12.0000 </r>
       <r>   -38.3952     0.0000    12.0000 </r>
       <r>   -38.1878     0.0000    12.0000 </r>
       <r>   -37.9803     0.0000    12.0000 </r>
       <r>   -37.7728     0.0000    12.0000 </r>
       <r>   -37.5654     0.0000    12.0000 </r>
       <r>   -37.3579     0.0000    12.0000 </r>
       <r>   -37.1504     0.0000    12.0000 </r>
       <r>   -36.9430     0.0000    12.0000 </r>
       <r>   -36.7355     0.0000    12.0000 </r>
       <r>   -36.5280     0.0000    12.0000 </r>
       <r>   -36.3206     0.0000    12.0000 </r>
       <r>   -36.1131     0.0000    12.0000 </r>
       <r>   -35.9056     0.0000    12.0000 </r>
       <r>   -35.6981     0.0000    12.0000 </r>
       <r>   -35.4907     0.0000    12.0000 </r>
       <r>   -35.2832     0.0000    12.0000 </r>
       <r>   -35.0757     0.0000    12.0000 </r>
       <r>   -34.8683     0.0000    12.0000 </r>
       <r>   -34.6608     0.0000    12.0000 </r>
       <r>   -34.4533     0.0000    12.0000 </r>
       <r>   -34.2459     0.0000    12.0000 </r>
       <r>   -34.0384     0.0000    12.0000 </r>
       <r>   -33.8309     0.0000    12.0000 </r>
       <r>   -33.6235     0.0000    12.0000 </r>
       <r>   -33.4160     0.0000    12.0000 </r>
       <r>   -33.2085     0.0000    12.0000 </r>
       <r>   -33.0011     0.0000    12.0000 </r>
       <r>   -32.7936     0.0000    12.0000 </r>
       <r>   -32.5861     0.0000    12.0000 </r>
       <r>   -32.3787     0.0000    12.0000 </r>
       <r>   -32.1712     0.0000    12.0000 </r>
       <r>   -31.9637     0.0000    12.0000 </r>
       <r>   -31.7563     0.0000    12.0000 </r>
       <r>   -31.5488     0.0000    12.0000 </r>
       <r>   -31.3413     0.0000    12.0000 </r>
       <r>   -31.1338     0.0000    12.0000 </r>
       <r>   -30.9264     0.0000    12.0000 </r>
       <r>   -30.7189     0.0000    12.0000 </r>
       <r>   -30.5114     0.0000    12.0000 </r>
       <r>   -30.3040     0.0000    12.0000 </r>
       <r>   -30.0965     0.0000    12.0000 </r>
       <r>   -29.8890     0.0000    12.0000 </r>
       <r>   -29.6816     0.0000    12.0000 </r>
       <r>   -29.4741     0.0000    12.0000 </r>
       <r>   -29.2666     0.0000    12.0000 </r>
       <r>   -29.0592     0.0000    12.0000 </r>
       <r>   -28.8517     0.0000    12.0000 </r>
       <r>   -28.6442     0.0000    12.0000 </r>
       <r>   -28.4368     0.0000    12.0000 </r>
       <r>   -28.2293     0.0000    12.0000 </r>
       <r>   -28.0218     0.0000    12.0000 </r>
       <r>   -27.8144     0.0000    12.0000 </r>
       <r>   -27.6069     0.0000    12.0000 </r>
       <r>   -27.3994     0.0000    12.0000 </r>
       <r>   -27.1920     0.0000    12.0000 </r>
       <r>   -26.9845     0.0000    12.0000 </r>
       <r>   -26.7770     0.0000    12.0000 </r>
       <r>   -26.5695     0.0000    12.0000 </r>
       <r>   -26.3621     0.0000    12.0000 </r>
       <r>   -26.1546     0.0000    12.0000 </r>
       <r>   -25.9471     0.0000    12.0000 </r>
       <r>   -25.7397    -0.0000    12.0000 </r>
       <r>   -25.5322    -0.0000    12.0000 </r>
       <r>   -25.3247    -0.0000    12.0000 </r>
       <r>   -25.1173    -0.0000    12.0000 </r>
       <r>   -24.9098    -0.0000    12.0000 </r>
       <r>   -24.7023    -0.0000    12.0000 </r>
       <r>   -24.4949    -0.0047    11.9990 </r>
       <r>   -24.2874    -0.1981    11.9579 </r>
       <r>   -24.0799     0.3479    12.0301 </r>
       <r>   -23.8725     9.1720    13.9330 </r>
       <r>   -23.6650    18.2908    17.7278 </r>
       <r>   -23.4575    39.7282    25.9701 </r>
       <r>   -23.2501    49.9862    36.3407 </r>
       <r>   -23.0426    36.7166    43.9582 </r>
       <r>   -22.8351    15.7028    47.2160 </r>
       <r>   -22.6277     3.4412    47.9300 </r>
       <r>   -22.4202     0.4499    48.0233 </r>
       <r>   -22.2127    -0.1067    48.0012 </r>
       <r>   -22.0052    -0.0056    48.0000 </r>
       <r>   -21.7978    -0.0000    48.0000 </r>
       <r>   -21.5903    -0.0000    48.0000 </r>
       <r>   -21.3828    -0.0000    48.0000 </r>
       <r>   -21.1754     0.0000    48.0000 </r>
       <r>   -20.9679     0.0000    48.0000 </r>
       <r>   -20.7604     0.0000    48.0000 </r>
       <r>   -20.5530     0.0000    48.0000 </r>
       <r>   -20.3455     0.0000    48.0000 </r>
       <r>   -20.1380     0.0000    48.0000 </r>
       <r>   -19.9306     0.0000    48.0000 </r>
       <r>   -19.7231     0.0000    48.0000 </r>
       <r>   -19.5156     0.0000    48.0000 </r>
       <r>   -19.3082     0.0000    48.0000 </r>
       <r>   -19.1007     0.0000    48.0000 </r>
       <r>   -18.8932     0.0000    48.0000 </r>
       <r>   -18.6858     0.0000    48.0000 </r>
       <r>   -18.4783     0.0000    48.0000 </r>
       <r>   -18.2708     0.0000    48.0000 </r>
       <r>   -18.0633     0.0000    48.0000 </r>
       <r>   -17.8559     0.0000    48.0000 </r>
       <r>   -17.6484     0.0000    48.0000 </r>
       <r>   -17.4409     0.0000    48.0000 </r>
       <r>   -17.2335     0.0000    48.0000 </r>
       <r>   -17.0260     0.0000    48.0000 </r>
       <r>   -16.8185     0.0000    48.0000 </r>
       <r>   -16.6111     0.0000    48.0000 </r>
       <r>   -16.4036     0.0000    48.0000 </r>
       <r>   -16.1961     0.0000    48.0000 </r>
       <r>   -15.9887     0.0000    48.0000 </r>
       <r>   -15.7812     0.0000    48.0000 </r>
       <r>   -15.5737     0.0000    48.0000 </r>
       <r>   -15.3663     0.0000    48.0000 </r>
       <r>   -15.1588     0.0000    48.0000 </r>
       <r>   -14.9513     0.0000    48.0000 </r>
       <r>   -14.7439     0.0000    48.0000 </r>
       <r>   -14.5364     0.0000    48.0000 </r>
       <r>   -14.3289     0.0000    48.0000 </r>
       <r>   -14.1215     0.0000    48.0000 </r>
       <r>   -13.9140     0.0000    48.0000 </r>
       <r>   -13.7065     0.0000    48.0000 </r>
       <r>   -13.4990     0.0000    48.0000 </r>
       <r>   -13.2916     0.0000    48.0000 </r>
       <r>   -13.0841     0.0000    48.0000 </r>
       <r>   -12.8766     0.0000    48.0000 </r>
       <r>   -12.6692     0.0000    48.0000 </r>
       <r>   -12.4617     0.0000    48.0000 </r>
       <r>   -12.2542     0.0000    48.0000 </r>
       <r>   -12.0468     0.0000    48.0000 </r>
       <r>   -11.8393     0.0000    48.0000 </r>
       <r>   -11.6318     0.0000    48.0000 </r>
       <r>   -11.4244     0.0000    48.0000 </r>
       <r>   -11.2169     0.0000    48.0000 </r>
       <r>   -11.0094     0.0000    48.0000 </r>
       <r>   -10.8020     0.0000    48.0000 </r>
       <r>   -10.5945     0.0000    48.0000 </r>
       <r>   -10.3870     0.0000    48.0000 </r>
       <r>   -10.1796     0.0000    48.0000 </r>
       <r>    -9.9721     0.0000    48.0000 </r>
       <r>    -9.7646     0.0000    48.0000 </r>
       <r>    -9.5572     0.0000    48.0000 </r>
       <r>    -9.3497     0.0000    48.0000 </r>
       <r>    -9.1422     0.0000    48.0000 </r>
       <r>    -8.9347     0.0000    48.0000 </r>
       <r>    -8.7273     0.0000    48.0000 </r>
       <r>    -8.5198     0.0000    48.0000 </r>
       <r>    -8.3123     0.0000    48.0000 </r>
       <r>    -8.1049     0.0000    48.0000 </r>
       <r>    -7.8974     0.0000    48.0000 </r>
       <r>    -7.6899     0.0000    48.0000 </r>
       <r>    -7.4825     0.0000    48.0000 </r>
       <r>    -7.2750     0.0000    48.0000 </r>
       <r>    -7.0675     0.0000    48.0000 </r>
       <r>    -6.8601     0.0000    48.0000 </r>
       <r>    -6.6526     0.0000    48.0000 </r>
       <r>    -6.4451     0.0000    48.0000 </r>
       <r>    -6.2377     0.0000    48.0000 </r>
       <r>    -6.0302     0.0000    48.0000 </r>
       <r>    -5.8227     0.0000    48.0000 </r>
       <r>    -5.6153     0.0000    48.0000 </r>
       <r>    -5.4078     0.0000    48.0000 </r>
       <r>    -5.2003     0.0000    48.0000 </r>
       <r>    -4.9929     0.0000    48.0000 </r>
       <r>    -4.7854     0.0000    48.0000 </r>
       <r>    -4.5779     0.0000    48.0000 </r>
       <r>    -4.3704     0.0000    48.0000 </r>
       <r>    -4.1630     0.0000    48.0000 </r>
       <r>    -3.9555     0.0000    48.0000 </r>
       <r>    -3.7480     0.0000    48.0000 </r>
       <r>    -3.5406     0.0000    48.0000 </r>
       <r>    -3.3331     0.0000    48.0000 </r>
       <r>    -3.1256     0.0000    48.0000 </r>
       <r>    -2.9182     0.0000    48.0000 </r>
       <r>    -2.7107     0.0000    48.0000 </r>
       <r>    -2.5032     0.0000    48.0000 </r>
       <r>    -2.2958    -0.0000    48.0000 </r>
       <r>    -2.0883    -0.0000    48.0000 </r>
       <r>    -1.8808    -0.0000    48.0000 </r>
       <r>    -1.6734    -0.0000    48.0000 </r>
       <r>    -1.4659    -0.0000    48.0000 </r>
       <r>    -1.2584    -0.0000    48.0000 </r>
       <r>    -1.0510    -0.0006    47.9999 </r>
       <r>    -0.8435    -0.0112    47.9976 </r>
       <r>    -0.6360     0.0430    48.0065 </r>
       <r>    -0.4286     0.4782    48.1057 </r>
       <r>    -0.2211     1.1491    48.3441 </r>
       <r>    -0.0136     1.7874    48.7149 </r>
       <r>     0.1939     1.6091    49.0488 </r>
       <r>     0.4013     1.5397    49.3682 </r>
       <r>     0.6088     3.0014    49.9909 </r>
       <r>     0.8163     3.2257    50.6602 </r>
       <r>     1.0237     2.6755    51.2152 </r>
       <r>     1.2312     3.1864    51.8763 </r>
       <r>     1.4387     4.6573    52.8426 </r>
       <r>     1.6461     3.6375    53.5972 </r>
       <r>     1.8536     4.6239    54.5566 </r>
       <r>     2.0611     7.1874    56.0477 </r>
       <r>     2.2685     9.9683    58.1158 </r>
       <r>     2.4760    14.8993    61.2070 </r>
       <r>     2.6835    18.8265    65.1129 </r>
       <r>     2.8909    21.7192    69.6189 </r>
       <r>     3.0984    27.4924    75.3227 </r>
       <r>     3.3059    28.0568    81.1436 </r>
       <r>     3.5133    28.1223    86.9781 </r>
       <r>     3.7208    29.7450    93.1492 </r>
       <r>     3.9283    29.7848    99.3286 </r>
       <r>     4.1358    26.5319   104.8332 </r>
       <r>     4.3432    23.2189   109.6504 </r>
       <r>     4.5507    26.5034   115.1490 </r>
       <r>     4.7582    36.1831   122.6558 </r>
       <r>     4.9656    40.3343   131.0239 </r>
       <r>     5.1731    40.0971   139.3428 </r>
       <r>     5.3806    37.1270   147.0455 </r>
       <r>     5.5880    34.1779   154.1363 </r>
       <r>     5.7955    35.9809   161.6012 </r>
       <r>     6.0030    38.8293   169.6570 </r>
       <r>     6.2104    39.3008   177.8107 </r>
       <r>     6.4179    38.5843   185.8157 </r>
       <r>     6.6254    35.0583   193.0892 </r>
       <r>     6.8328    32.7729   199.8885 </r>
       <r>     7.0403    28.4716   205.7955 </r>
       <r>     7.2478    21.1212   210.1775 </r>
       <r>     7.4552    15.8401   213.4638 </r>
       <r>     7.6627    16.2422   216.8335 </r>
       <r>     7.8702    17.6589   220.4972 </r>
       <r>     8.0776    18.2480   224.2830 </r>
       <r>     8.2851    20.8027   228.5989 </r>
       <r>     8.4926    22.1098   233.1860 </r>
       <r>     8.7001    16.6736   236.6453 </r>
       <r>     8.9075    10.7982   238.8855 </r>
       <r>     9.1150     4.8244   239.8865 </r>
       <r>     9.3225     0.6446   240.0202 </r>
       <r>     9.5299    -0.0860   240.0023 </r>
       <r>     9.7374    -0.0112   240.0000 </r>
       <r>     9.9449    -0.0001   240.0000 </r>
       <r>    10.1523    -0.0000   240.0000 </r>
       <r>    10.3598    -0.0000   240.0000 </r>
       <r>    10.5673    -0.0000   240.0000 </r>
       <r>    10.7747     0.0000   240.0000 </r>
       <r>    10.9822     0.0000   240.0000 </r>
       <r>    11.1897     0.0000   240.0000 </r>
       <r>    11.3971     0.0000   240.0000 </r>
       <r>    11.6046     0.0000   240.0000 </r>
       <r>    11.8121     0.0000   240.0000 </r>
       <r>    12.0195     0.0000   240.0000 </r>
      </set>
     </set>
    </array>
   </total>
  </dos>
 </calculation>
 <structure name="finalpos" >
  <crystal>
   <varray name="basis" >
    <v>      -3.18261756      -3.16610424      -3.16692301 </v>
    <v>       1.60661646       1.61991630      -7.96935016 </v>
    <v>       7.93809615      -7.90585928      -1.57424492 </v>
   </varray>
   <i name="volume">    481.86910405 </i>
   <varray name="rec_basis" >
    <v>      -0.13604256      -0.12603477      -0.05304498 </v>
    <v>       0.04161509       0.06256794      -0.10437309 </v>
    <v>       0.06300870      -0.06319439      -0.00014290 </v>
   </varray>
  </crystal>
  <varray name="positions" >
   <v>       0.94781069       0.93313469       0.39726840 </v>
   <v>       0.63349335       0.26782637       0.40256310 </v>
   <v>       0.50517706       0.00194382      -0.00319305 </v>
   <v>       0.00529098       0.00198981       0.00219170 </v>
   <v>       0.10074338       0.20189405       0.79740198 </v>
   <v>       0.04838291       0.05889760       0.59699740 </v>
   <v>       0.90752114       0.79782144       0.20341518 </v>
   <v>       0.81201244       0.59147730       0.39785408 </v>
   <v>       0.73573885       0.46748163       0.20093129 </v>
   <v>       0.66594979       0.34107117      -0.00246524 </v>
   <v>       0.13560726       0.26975852       0.40109348 </v>
   <v>       0.83806070       0.66477958       0.00191481 </v>
   <v>       0.92083275       0.86844302       0.79849481 </v>
   <v>       0.56941865       0.13513736       0.19704416 </v>
   <v>       0.40859668       0.79366852       0.20182478 </v>
   <v>       0.43498223       0.85503080       0.79410153 </v>
   <v>       0.30618495       0.60557399       0.41124810 </v>
   <v>       0.80138505       0.73070324       0.59695914 </v>
   <v>       0.45900092       0.92974234       0.40830979 </v>
   <v>       0.17781968       0.33561938       0.00084147 </v>
   <v>       0.27822164       0.54094956       0.78791660 </v>
   <v>       0.18800084       0.39144055       0.59653146 </v>
   <v>       0.06793450       0.14536185       0.20862325 </v>
   <v>       0.77673438       0.52496980       0.80044884 </v>
   <v>       0.69033303       0.40808223       0.60313917 </v>
   <v>       0.59986613       0.20364939       0.79633159 </v>
   <v>       0.54392687       0.07043316       0.60229370 </v>
   <v>       0.33861898       0.65895191      -0.00089653 </v>
   <v>       0.23568749       0.47083358       0.20081501 </v>
  </varray>
 </structure>
</modeling>
