SQS with 1 vacancy for VFE and VRV      
           1
    -3.190000   -3.190000   -3.190000
     1.595000    1.595000   -7.975000
     7.975000   -7.975000   -1.595000
   Nb   Mo   Ta   Ti   W 
   6   5   6   6   6
Direct configuration=     1
   0.96666667  0.93333333  0.40000000
   0.63333333  0.26666667  0.40000000
   0.50000000  0.00000000  0.00000000
   0.00000000  0.00000000  0.00000000
   0.10000000  0.20000000  0.80000000
   0.03333333  0.06666667  0.60000000
   0.90000000  0.80000000  0.20000000
   0.80000000  0.60000000  0.40000000
   0.73333333  0.46666667  0.20000000
   0.66666667  0.33333333  0.00000000
   0.13333333  0.26666667  0.40000000
   0.83333333  0.66666667  0.00000000
   0.93333333  0.86666667  0.80000000
   0.56666667  0.13333333  0.20000000
   0.40000000  0.80000000  0.20000000
   0.43333333  0.86666667  0.80000000
   0.30000000  0.60000000  0.40000000
   0.86666667  0.73333333  0.60000000
   0.46666667  0.93333333  0.40000000
   0.16666667  0.33333333  0.00000000
   0.26666667  0.53333333  0.80000000
   0.20000000  0.40000000  0.60000000
   0.06666667  0.13333333  0.20000000
   0.76666667  0.53333333  0.80000000
   0.70000000  0.40000000  0.60000000
   0.60000000  0.20000000  0.80000000
   0.53333333  0.06666667  0.60000000
   0.33333333  0.66666667  0.00000000
   0.23333333  0.46666667  0.20000000
SQS with 1 vacancy for VFE and VRV      
           1
    -3.157786   -3.152690   -3.155519
     1.592219    1.584850   -7.910629
     7.903174   -7.882778   -1.585416
   Nb   Mo   Ta   Ti   W 
   6   5   6   6   6
Direct configuration=     2
   0.96143899  0.93339879  0.39774980
   0.63311196  0.26587351  0.40151076
   0.49892805  0.00248534 -0.00035324
   0.00033945  0.00024382  0.00091903
   0.09777108  0.20431982  0.79851159
   0.03661346  0.06663312  0.59850292
   0.90151858  0.79867285  0.20271611
   0.80497276  0.59518779  0.39911456
   0.73300972  0.46689156  0.19972862
   0.66343336  0.33808096 -0.00074482
   0.13304498  0.26975795  0.39961020
   0.83389251  0.66438946  0.00104447
   0.92719127  0.86900822  0.80039195
   0.56660218  0.13341201  0.19749239
   0.40369657  0.79532253  0.19952266
   0.43811069  0.86090766  0.79681623
   0.30045226  0.60147854  0.40188417
   0.86003171  0.73366807  0.59942748
   0.46679573  0.93186868  0.40296431
   0.16940096  0.33367399  0.00162069
   0.26946735  0.53427485  0.79924728
   0.19854817  0.39459003  0.59864166
   0.06626717  0.13678546  0.20287671
   0.77019460  0.52902090  0.79991863
   0.69782394  0.40584921  0.60176565
   0.59811105  0.20216016  0.79798277
   0.53736875  0.06903517  0.60153707
   0.33468933  0.66120224  0.00025082
   0.23050669  0.46847397  0.19934954
SQS with 1 vacancy for VFE and VRV      
           1
    -3.159291   -3.154433   -3.157131
     1.592349    1.585324   -7.913637
     7.906530   -7.887087   -1.585864
   Nb   Mo   Ta   Ti   W 
   6   5   6   6   6
Direct configuration=     3
   0.96168618  0.93339550  0.39785611
   0.63312232  0.26591097  0.40143942
   0.49897852  0.00236830 -0.00033649
   0.00032329  0.00023242  0.00087564
   0.09787618  0.20411632  0.79858199
   0.03645868  0.06663459  0.59857355
   0.90144665  0.79873557  0.20258782
   0.80473834  0.59541428  0.39915618
   0.73302502  0.46688095  0.19974145
   0.66358579  0.33785738 -0.00070950
   0.13305840  0.26961238  0.39962867
   0.83386617  0.66449676  0.00099510
   0.92748118  0.86889799  0.80037359
   0.56660550  0.13340809  0.19761078
   0.40352238  0.79554271  0.19954504
   0.43788583  0.86117854  0.79696635
   0.30043057  0.60140910  0.40179524
   0.86034518  0.73365223  0.59945462
   0.46678943  0.93193788  0.40282432
   0.16927159  0.33365810  0.00154414
   0.26933506  0.53423047  0.79928280
   0.19861734  0.39484460  0.59870569
   0.06628545  0.13662318  0.20274098
   0.77002830  0.52922393  0.79992232
   0.69792607  0.40557398  0.60168245
   0.59820033  0.20205829  0.79807808
   0.53717776  0.06892381  0.60146449
   0.33462569  0.66145953  0.00023884
   0.23064014  0.46838882  0.19938033
SQS with 1 vacancy for VFE and VRV      
           1
    -3.171582   -3.162646   -3.167534
     1.605482    1.596462   -7.953661
     7.942234   -7.910293   -1.593369
   Nb   Mo   Ta   Ti   W 
   6   5   6   6   6
Direct configuration=     4
   0.95799568  0.93348702  0.39641823
   0.63296607  0.26555491  0.40222355
   0.49839954  0.00363917 -0.00089960
   0.00067674  0.00058685  0.00150354
   0.09674902  0.20652342  0.79767443
   0.03980315  0.06605810  0.59743788
   0.90247548  0.79784059  0.20420560
   0.80805806  0.59226063  0.39868264
   0.73286003  0.46663343  0.19967998
   0.66162624  0.34083860 -0.00128385
   0.13296149  0.27139431  0.39946593
   0.83419918  0.66327382  0.00169529
   0.92408035  0.87029495  0.80053618
   0.56646568  0.13348642  0.19616461
   0.40597952  0.79274747  0.19941510
   0.44009775  0.85717183  0.79448264
   0.30124180  0.60246851  0.40383160
   0.85496708  0.73376569  0.59894175
   0.46656322  0.93048274  0.40535345
   0.17126965  0.33382123  0.00270614
   0.27152268  0.53519464  0.79818435
   0.19726381  0.39146340  0.59767763
   0.06600805  0.13915787  0.20488430
   0.77254875  0.52653219  0.79984840
   0.69547425  0.41033954  0.60274022
   0.59683713  0.20376173  0.79677959
   0.53987819  0.07045068  0.60235373
   0.33530425  0.65809656  0.00017401
   0.22906049  0.46934039  0.19912268
SQS with 1 vacancy for VFE and VRV      
           1
    -3.178180   -3.167056   -3.173119
     1.612532    1.602441   -7.975147
     7.961402   -7.922751   -1.597399
   Nb   Mo   Ta   Ti   W 
   6   5   6   6   6
Direct configuration=     5
   0.95601975  0.93353664  0.39564866
   0.63288290  0.26536445  0.40264296
   0.49809000  0.00431800 -0.00120095
   0.00086660  0.00077581  0.00183941
   0.09614653  0.20780908  0.79718870
   0.04159151  0.06575068  0.59683095
   0.90302682  0.79736198  0.20507108
   0.80983222  0.59057689  0.39843002
   0.73277154  0.46650131  0.19964709
   0.66057894  0.34243068 -0.00159151
   0.13291054  0.27234582  0.39937875
   0.83437725  0.66262053  0.00206991
   0.92226150  0.87104086  0.80062258
   0.56638972  0.13352887  0.19539109
   0.40729261  0.79125497  0.19934612
   0.44127697  0.85503353  0.79315478
   0.30167819  0.60303325  0.40492081
   0.85208891  0.73382667  0.59866669
   0.46644342  0.92970469  0.40670624
   0.17233988  0.33390776  0.00332790
   0.27269293  0.53570985  0.79759707
   0.19653672  0.38965855  0.59712779
   0.06586286  0.14051029  0.20603046
   0.77389582  0.52509494  0.79980938
   0.69416592  0.41288365  0.60330534
   0.59610760  0.20467186  0.79608478
   0.54132481  0.07126545  0.60282962
   0.33566533  0.65630097  0.00013966
   0.22821555  0.46984863  0.19898459
SQS with 1 vacancy for VFE and VRV      
           1
    -3.180457   -3.169208   -3.174437
     1.611734    1.605167   -7.978138
     7.964737   -7.928795   -1.595034
   Nb   Mo   Ta   Ti   W 
   6   5   6   6   6
Direct configuration=     6
   0.95548711  0.93363185  0.39573300
   0.63277225  0.26586952  0.40235094
   0.49874873  0.00342448 -0.00188189
   0.00084462  0.00090967  0.00188756
   0.09675999  0.20667071  0.79738459
   0.04274952  0.06540413  0.59674892
   0.90315099  0.79725631  0.20448292
   0.80989140  0.59077446  0.39852392
   0.73264854  0.46611628  0.19984166
   0.66106298  0.34182417 -0.00172265
   0.13313394  0.27178333  0.39950016
   0.83396153  0.66332611  0.00203735
   0.92276856  0.87100904  0.80066999
   0.56632939  0.13368651  0.19580237
   0.40722933  0.79158647  0.19965485
   0.44008781  0.85490457  0.79278211
   0.30257618  0.60298585  0.40572147
   0.85038834  0.73376465  0.59848701
   0.46602166  0.92911547  0.40738253
   0.17262132  0.33391402  0.00326843
   0.27311045  0.53604158  0.79681305
   0.19583285  0.38999468  0.59692367
   0.06577993  0.14086975  0.20639743
   0.77402764  0.52578833  0.79999067
   0.69310991  0.41330431  0.60303471
   0.59634891  0.20480951  0.79619719
   0.54161631  0.07121563  0.60267145
   0.33519878  0.65719209 -0.00015740
   0.22907437  0.46949319  0.19947396
SQS with 1 vacancy for VFE and VRV      
           1
    -3.185208   -3.173701   -3.177188
     1.610070    1.610856   -7.984381
     7.971698   -7.941407   -1.590098
   Nb   Mo   Ta   Ti   W 
   6   5   6   6   6
Direct configuration=     7
   0.95437615  0.93383045  0.39590895
   0.63254167  0.26692283  0.40174208
   0.50012278  0.00155989 -0.00330263
   0.00079879  0.00118896  0.00198807
   0.09803925  0.20429621  0.79779267
   0.04516479  0.06468130  0.59657767
   0.90341018  0.79703529  0.20325605
   0.81001483  0.59118672  0.39871987
   0.73239185  0.46531324  0.20024732
   0.66207250  0.34055886 -0.00199648
   0.13359977  0.27061007  0.39975314
   0.83309460  0.66479793  0.00196975
   0.92382613  0.87094281  0.80076888
   0.56620343  0.13401576  0.19666030
   0.40709728  0.79227833  0.20029896
   0.43760766  0.85463492  0.79200470
   0.30444883  0.60288793  0.40739154
   0.84684147  0.73363476  0.59811216
   0.46514163  0.92788687  0.40879290
   0.17320835  0.33392709  0.00314439
   0.27398163  0.53673290  0.79517786
   0.19436489  0.39069556  0.59649804
   0.06560687  0.14162000  0.20716303
   0.77430262  0.52723506  0.80036915
   0.69090751  0.41418140  0.60247041
   0.59685221  0.20509684  0.79643174
   0.54222434  0.07111159  0.60234151
   0.33422593  0.65905071 -0.00077660
   0.23086539  0.46875236  0.20049457
SQS with 1 vacancy for VFE and VRV      
           1
    -3.179309   -3.166383   -3.170018
     1.605082    1.609264   -7.966469
     7.952324   -7.921881   -1.583101
   Nb   Mo   Ta   Ti   W 
   6   5   6   6   6
Direct configuration=     8
   0.95352193  0.93395605  0.39590754
   0.63253358  0.26725326  0.40171955
   0.50075873  0.00092837 -0.00385142
   0.00092516  0.00134520  0.00207493
   0.09847448  0.20346052  0.79785322
   0.04610916  0.06433193  0.59650277
   0.90367872  0.79691362  0.20287671
   0.81029712  0.59135253  0.39876078
   0.73227628  0.46523523  0.20037285
   0.66241816  0.34018628 -0.00213276
   0.13387662  0.27017019  0.39993147
   0.83291148  0.66518176  0.00194874
   0.92350833  0.87108723  0.80067515
   0.56622106  0.13383782  0.19700165
   0.40701993  0.79248153  0.20063108
   0.43685396  0.85450696  0.79154311
   0.30524127  0.60303872  0.40817414
   0.84445222  0.73356045  0.59791728
   0.46467766  0.92718120  0.40957189
   0.17363516  0.33402532  0.00300595
   0.27457429  0.53716004  0.79424866
   0.19340436  0.39090933  0.59635717
   0.06550338  0.14206769  0.20757429
   0.77464466  0.52752871  0.80050554
   0.69013632  0.41444722  0.60233274
   0.59722083  0.20511792  0.79641456
   0.54279764  0.07120099  0.60219706
   0.33408466  0.65955642 -0.00096717
   0.23157617  0.46864418  0.20085248
SQS with 1 vacancy for VFE and VRV      
           1
    -3.176999   -3.163517   -3.167209
     1.603128    1.608640   -7.959454
     7.944736   -7.914234   -1.580361
   Nb   Mo   Ta   Ti   W 
   6   5   6   6   6
Direct configuration=     9
   0.95318669  0.93400533  0.39590696
   0.63253041  0.26738295  0.40171073
   0.50100826  0.00068045 -0.00406690
   0.00097477  0.00140654  0.00210905
   0.09864527  0.20313253  0.79787694
   0.04647977  0.06419481  0.59647337
   0.90378407  0.79686583  0.20272779
   0.81040792  0.59141761  0.39877686
   0.73223093  0.46520462  0.20042212
   0.66255380  0.34004003 -0.00218628
   0.13398527  0.26999757  0.40000145
   0.83283963  0.66533240  0.00194052
   0.92338360  0.87114389  0.80063836
   0.56622801  0.13376802  0.19713565
   0.40698961  0.79256132  0.20076149
   0.43655812  0.85445667  0.79136186
   0.30555233  0.60309801  0.40848144
   0.84351451  0.73353122  0.59784069
   0.46449561  0.92690432  0.40987765
   0.17380266  0.33406386  0.00295162
   0.27480683  0.53732758  0.79388392
   0.19302738  0.39099320  0.59630185
   0.06546281  0.14224346  0.20773578
   0.77477892  0.52764398  0.80055913
   0.68983365  0.41455152  0.60227869
   0.59736550  0.20512620  0.79640783
   0.54302264  0.07123608  0.60214038
   0.33402921  0.65975488 -0.00104195
   0.23185515  0.46860178  0.20099301
SQS with 1 vacancy for VFE and VRV      
           1
    -3.179011   -3.162990   -3.167648
     1.602056    1.610092   -7.960181
     7.942875   -7.909224   -1.577353
   Nb   Mo   Ta   Ti   W 
   6   5   6   6   6
Direct configuration=    10
   0.95230821  0.93412356  0.39589741
   0.63264792  0.26743724  0.40195626
   0.50136712  0.00058468 -0.00425415
   0.00126998  0.00159043  0.00220816
   0.09881839  0.20289703  0.79778146
   0.04697124  0.06379324  0.59642243
   0.90407953  0.79681461  0.20270914
   0.81079690  0.59157341  0.39876752
   0.73225410  0.46542769  0.20046060
   0.66269749  0.33999436 -0.00225161
   0.13424498  0.26980357  0.40019704
   0.83309272  0.66516270  0.00195020
   0.92255301  0.87120496  0.80033969
   0.56634320  0.13331114  0.19727733
   0.40698035  0.79261037  0.20102504
   0.43634585  0.85435108  0.79091300
   0.30587917  0.60350376  0.40909953
   0.84107577  0.73345094  0.59766667
   0.46407691  0.92622809  0.41056456
   0.17422615  0.33421285  0.00277514
   0.27535261  0.53780936  0.79298734
   0.19206918  0.39109493  0.59629654
   0.06535230  0.14263794  0.20804261
   0.77525983  0.52745220  0.80056974
   0.68947903  0.41463193  0.60231242
   0.59768434  0.20508139  0.79629316
   0.54366477  0.07139560  0.60201350
   0.33426287  0.65972171 -0.00110117
   0.23217940  0.46876589  0.20108047
SQS with 1 vacancy for VFE and VRV      
           1
    -3.184623   -3.161521   -3.168872
     1.599065    1.614142   -7.962207
     7.937686   -7.895253   -1.568965
   Nb   Mo   Ta   Ti   W 
   6   5   6   6   6
Direct configuration=    11
   0.94985897  0.93445320  0.39587041
   0.63297593  0.26758868  0.40264135
   0.50236734  0.00031762 -0.00477644
   0.00209318  0.00210322  0.00248487
   0.09930091  0.20224037  0.79751504
   0.04834138  0.06267355  0.59628038
   0.90490326  0.79667180  0.20265721
   0.81188138  0.59200781  0.39874168
   0.73231875  0.46604968  0.20056804
   0.66309798  0.33986702 -0.00243385
   0.13496933  0.26926266  0.40074273
   0.83379839  0.66468950  0.00197727
   0.92023685  0.87137517  0.79950609
   0.56666458  0.13203723  0.19767243
   0.40695492  0.79274719  0.20176033
   0.43575336  0.85405656  0.78966059
   0.30679133  0.60463529  0.41082426
   0.83427622  0.73322702  0.59718008
   0.46291061  0.92434268  0.41248046
   0.17540660  0.33462826  0.00228302
   0.27687291  0.53915251  0.79048644
   0.18939769  0.39137856  0.59628135
   0.06504466  0.14373794  0.20889874
   0.77660064  0.52691747  0.80059949
   0.68849040  0.41485614  0.60240642
   0.59857311  0.20495644  0.79597336
   0.54545486  0.07184038  0.60165986
   0.33491424  0.65962920 -0.00126630
   0.23308354  0.46922350  0.20132468
SQS with 1 vacancy for VFE and VRV      
           1
    -3.191501   -3.170078   -3.175419
     1.603408    1.617336   -7.978378
     7.951028   -7.911138   -1.573856
   Nb   Mo   Ta   Ti   W 
   6   5   6   6   6
Direct configuration=    12
   0.94968767  0.93449204  0.39594763
   0.63299670  0.26762770  0.40266379
   0.50240276  0.00066652 -0.00447789
   0.00227147  0.00202863  0.00241103
   0.09935838  0.20268276  0.79739202
   0.04804394  0.06253252  0.59632501
   0.90498490  0.79672976  0.20297980
   0.81205034  0.59190263  0.39866414
   0.73268309  0.46616497  0.20068958
   0.66310130  0.34016343 -0.00233018
   0.13493022  0.26962889  0.40079083
   0.83433023  0.66438318  0.00192893
   0.92013423  0.87102101  0.79936831
   0.56677695  0.13199857  0.19767775
   0.40714871  0.79269922  0.20168110
   0.43603006  0.85399588  0.78987622
   0.30634709  0.60489324  0.41082158
   0.83303695  0.73300971  0.59715954
   0.46272341  0.92436477  0.41240099
   0.17554922  0.33469672  0.00206372
   0.27685609  0.53947929  0.79025140
   0.18930843  0.39135508  0.59638263
   0.06500192  0.14390334  0.20877715
   0.77662621  0.52648063  0.80042362
   0.68882628  0.41434476  0.60262634
   0.59845625  0.20500678  0.79590170
   0.54523060  0.07186966  0.60174003
   0.33536250  0.65919186 -0.00132397
   0.23307742  0.46935313  0.20118719
SQS with 1 vacancy for VFE and VRV      
           1
    -3.189276   -3.167310   -3.173301
     1.602003    1.616303   -7.973148
     7.946712   -7.906000   -1.572274
   Nb   Mo   Ta   Ti   W 
   6   5   6   6   6
Direct configuration=    13
   0.94974296  0.93447951  0.39592269
   0.63299000  0.26761510  0.40265655
   0.50239136  0.00055391 -0.00457427
   0.00221393  0.00205270  0.00243488
   0.09933980  0.20253996  0.79743175
   0.04813993  0.06257805  0.59631059
   0.90495860  0.79671106  0.20287566
   0.81199581  0.59193657  0.39868918
   0.73256553  0.46612774  0.20065036
   0.66310023  0.34006775 -0.00236364
   0.13494283  0.26951068  0.40077531
   0.83415861  0.66448203  0.00194455
   0.92016734  0.87113533  0.79941278
   0.56674069  0.13201104  0.19767603
   0.40708617  0.79271469  0.20170669
   0.43594080  0.85401546  0.78980661
   0.30649043  0.60481000  0.41082244
   0.83343686  0.73307991  0.59716612
   0.46278381  0.92435764  0.41242664
   0.17550316  0.33467461  0.00213453
   0.27686147  0.53937381  0.79032729
   0.18933725  0.39136266  0.59634992
   0.06501569  0.14384995  0.20881640
   0.77661795  0.52662163  0.80048039
   0.68871795  0.41450981  0.60255534
   0.59849395  0.20499053  0.79592483
   0.54530298  0.07186022  0.60171414
   0.33521786  0.65933300 -0.00130534
   0.23307937  0.46931129  0.20123158
SQS with 1 vacancy for VFE and VRV      
           1
    -3.188527   -3.168602   -3.172418
     1.603133    1.615886   -7.971369
     7.941879   -7.904034   -1.574035
   Nb   Mo   Ta   Ti   W 
   6   5   6   6   6
Direct configuration=    14
   0.94958686  0.93450020  0.39600703
   0.63296761  0.26768319  0.40265740
   0.50249164  0.00090207 -0.00424250
   0.00237348  0.00190868  0.00233325
   0.09938352  0.20299475  0.79730708
   0.04775509  0.06251122  0.59638538
   0.90505724  0.79677092  0.20321358
   0.81210654  0.59174925  0.39860301
   0.73295707  0.46624922  0.20076589
   0.66310860  0.34040839 -0.00226035
   0.13485658  0.26995641  0.40079027
   0.83459326  0.66426973  0.00190104
   0.92015545  0.87078209  0.79933862
   0.56686809  0.13211491  0.19763711
   0.40728719  0.79262770  0.20155965
   0.43624124  0.85400783  0.79019935
   0.30600114  0.60502315  0.41067402
   0.83219477  0.73281897  0.59715731
   0.46263481  0.92455307  0.41218874
   0.17563970  0.33475200  0.00191736
   0.27681729  0.53963554  0.79021529
   0.18939017  0.39129467  0.59643397
   0.06499675  0.14400678  0.20865103
   0.77654464  0.52616456  0.80030985
   0.68919516  0.41382474  0.60278510
   0.59839981  0.20498797  0.79586426
   0.54492089  0.07186912  0.60185281
   0.33572478  0.65885511 -0.00132786
   0.23308397  0.46944441  0.20108229
SQS with 1 vacancy for VFE and VRV      
           1
    -3.187449   -3.170464   -3.171147
     1.604761    1.615286   -7.968808
     7.934916   -7.901202   -1.576573
   Nb   Mo   Ta   Ti   W 
   6   5   6   6   6
Direct configuration=    15
   0.94936193  0.93452996  0.39612861
   0.63293538  0.26778128  0.40265862
   0.50263595  0.00140367 -0.00376444
   0.00260335  0.00170123  0.00218677
   0.09944672  0.20365004  0.79712734
   0.04720062  0.06241484  0.59649326
   0.90519911  0.79685714  0.20370057
   0.81226606  0.59147939  0.39847884
   0.73352105  0.46642431  0.20093230
   0.66312067  0.34089916 -0.00211154
   0.13473244  0.27059861  0.40081180
   0.83521936  0.66396395  0.00183829
   0.92013827  0.87027315  0.79923178
   0.56705168  0.13226460  0.19758098
   0.40757687  0.79250243  0.20134770
   0.43667376  0.85399684  0.79076531
   0.30529647  0.60533019  0.41046018
   0.83040542  0.73244275  0.59714487
   0.46242040  0.92483465  0.41184589
   0.17583656  0.33486357  0.00160433
   0.27675381  0.54001266  0.79005386
   0.18946632  0.39119670  0.59655510
   0.06496962  0.14423276  0.20841269
   0.77643903  0.52550603  0.80006415
   0.68988223  0.41283775  0.60311625
   0.59826424  0.20498428  0.79577699
   0.54437037  0.07188183  0.60205274
   0.33645491  0.65816667 -0.00136032
   0.23309074  0.46963624  0.20086710
SQS with 1 vacancy for VFE and VRV      
           1
    -3.187018   -3.171196   -3.171267
     1.605858    1.615434   -7.970206
     7.934230   -7.901961   -1.578087
   Nb   Mo   Ta   Ti   W 
   6   5   6   6   6
Direct configuration=    16
   0.94925157  0.93457659  0.39627977
   0.63285630  0.26786118  0.40264349
   0.50282265  0.00146303 -0.00365899
   0.00284921  0.00162795  0.00210876
   0.09958212  0.20346417  0.79718650
   0.04709395  0.06223466  0.59661297
   0.90537074  0.79696956  0.20366524
   0.81198548  0.59150304  0.39849827
   0.73383170  0.46647171  0.20088756
   0.66341850  0.34088289 -0.00213143
   0.13473672  0.27065331  0.40078536
   0.83550948  0.66402042  0.00186671
   0.92048947  0.87005450  0.79921883
   0.56719348  0.13255149  0.19761279
   0.40768310  0.79250753  0.20129825
   0.43641151  0.85417631  0.79115625
   0.30518574  0.60530816  0.41044297
   0.82862700  0.73225295  0.59710127
   0.46220170  0.92519518  0.41156046
   0.17597907  0.33489949  0.00144350
   0.27666169  0.54021089  0.78986249
   0.18967247  0.39129689  0.59658287
   0.06514222  0.14437030  0.20828511
   0.77632096  0.52554353  0.80007592
   0.68996550  0.41219356  0.60307713
   0.59846990  0.20479121  0.79589906
   0.54394338  0.07171637  0.60212417
   0.33671718  0.65819350 -0.00132259
   0.23336054  0.46967631  0.20083730
SQS with 1 vacancy for VFE and VRV      
           1
    -3.185726   -3.173394   -3.171627
     1.609150    1.615879   -7.974399
     7.932170   -7.904238   -1.582630
   Nb   Mo   Ta   Ti   W 
   6   5   6   6   6
Direct configuration=    17
   0.94892039  0.93471639  0.39673327
   0.63261909  0.26810085  0.40259812
   0.50338266  0.00164103 -0.00334271
   0.00358682  0.00140820  0.00187471
   0.09998822  0.20290666  0.79736399
   0.04677380  0.06169420  0.59697216
   0.90588567  0.79730676  0.20355919
   0.81114376  0.59157396  0.39855663
   0.73476365  0.46661389  0.20075328
   0.66431195  0.34083412 -0.00219115
   0.13474960  0.27081738  0.40070602
   0.83637977  0.66418979  0.00195188
   0.92154298  0.86939872  0.79917993
   0.56761893  0.13341201  0.19770814
   0.40800183  0.79252284  0.20114988
   0.43562453  0.85471450  0.79232911
   0.30485358  0.60524211  0.41039136
   0.82329194  0.73168358  0.59697089
   0.46154597  0.92627660  0.41070418
   0.17640672  0.33500727  0.00096097
   0.27638556  0.54080549  0.78928837
   0.19029092  0.39159740  0.59666613
   0.06566014  0.14478288  0.20790230
   0.77596676  0.52565602  0.80011124
   0.69021514  0.41026139  0.60295988
   0.59908671  0.20421211  0.79626525
   0.54266234  0.07122005  0.60233858
   0.33750394  0.65827396 -0.00120943
   0.23416996  0.46979652  0.20074784
SQS with 1 vacancy for VFE and VRV      
           1
    -3.183951   -3.170494   -3.169741
     1.607572    1.615332   -7.969903
     7.928868   -7.899423   -1.580400
   Nb   Mo   Ta   Ti   W 
   6   5   6   6   6
Direct configuration=    18
   0.94877397  0.93459855  0.39678774
   0.63269097  0.26798524  0.40262481
   0.50364445  0.00159310 -0.00331377
   0.00391240  0.00145125  0.00197393
   0.10004686  0.20263270  0.79743276
   0.04675357  0.06145118  0.59699633
   0.90608749  0.79741831  0.20345128
   0.81098589  0.59164161  0.39853021
   0.73492398  0.46666970  0.20068719
   0.66467366  0.34070791 -0.00232510
   0.13476660  0.27059404  0.40072804
   0.83664248  0.66431179  0.00191780
   0.92143896  0.86926287  0.79910775
   0.56786723  0.13374745  0.19765784
   0.40795774  0.79276162  0.20125397
   0.43564129  0.85483058  0.79266746
   0.30500380  0.60527767  0.41048052
   0.82057762  0.73156537  0.59701023
   0.46129367  0.92671698  0.41041766
   0.17664619  0.33509488  0.00091516
   0.27656199  0.54089191  0.78904958
   0.19014136  0.39158412  0.59666274
   0.06599977  0.14482228  0.20792657
   0.77599633  0.52565742  0.80016223
   0.69028694  0.40996350  0.60293464
   0.59923847  0.20403995  0.79631266
   0.54275487  0.07099868  0.60236114
   0.33761745  0.65848971 -0.00115582
   0.23440731  0.46990629  0.20074445
SQS with 1 vacancy for VFE and VRV      
           1
    -3.182781   -3.168582   -3.168498
     1.606532    1.614972   -7.966938
     7.926690   -7.896249   -1.578930
   Nb   Mo   Ta   Ti   W 
   6   5   6   6   6
Direct configuration=    19
   0.94867737  0.93452081  0.39682366
   0.63273841  0.26790895  0.40264242
   0.50381721  0.00156147 -0.00329468
   0.00412725  0.00147965  0.00203941
   0.10008557  0.20245195  0.79747812
   0.04674024  0.06129084  0.59701227
   0.90622064  0.79749190  0.20338009
   0.81088170  0.59168624  0.39851277
   0.73502976  0.46670652  0.20064359
   0.66491233  0.34062462 -0.00241346
   0.13477783  0.27044669  0.40074256
   0.83681583  0.66439228  0.00189533
   0.92137032  0.86917325  0.79906013
   0.56803106  0.13396876  0.19762468
   0.40792866  0.79291917  0.20132264
   0.43565241  0.85490719  0.79289069
   0.30510294  0.60530113  0.41053935
   0.81878653  0.73148747  0.59703606
   0.46112713  0.92700753  0.41022865
   0.17680420  0.33515268  0.00088496
   0.27667836  0.54094892  0.78889205
   0.19004267  0.39157536  0.59666050
   0.06622389  0.14484826  0.20794260
   0.77601586  0.52565835  0.80019587
   0.69033432  0.40976696  0.60291798
   0.59933862  0.20392636  0.79634394
   0.54281594  0.07085262  0.60237603
   0.33769235  0.65863205 -0.00112044
   0.23456392  0.46997871  0.20074223
SQS with 1 vacancy for VFE and VRV      
           1
    -3.183000   -3.168173   -3.168586
     1.606289    1.615323   -7.967365
     7.928013   -7.896728   -1.578256
   Nb   Mo   Ta   Ti   W 
   6   5   6   6   6
Direct configuration=    20
   0.94862218  0.93445062  0.39683910
   0.63278335  0.26785322  0.40265269
   0.50393066  0.00154576 -0.00328155
   0.00425803  0.00151376  0.00209091
   0.10011164  0.20234535  0.79750133
   0.04676480  0.06116631  0.59701480
   0.90630028  0.79753565  0.20334336
   0.81085616  0.59171190  0.39848871
   0.73507759  0.46673897  0.20062457
   0.66504965  0.34057916 -0.00246676
   0.13479489  0.27033776  0.40076165
   0.83691410  0.66443929  0.00187472
   0.92131641  0.86912309  0.79902327
   0.56814233  0.13408079  0.19759589
   0.40791571  0.79302960  0.20138056
   0.43565295  0.85494195  0.79300174
   0.30517753  0.60532580  0.41059184
   0.81759262  0.73144748  0.59705486
   0.46101100  0.92718943  0.41011175
   0.17690809  0.33519112  0.00087571
   0.27678391  0.54097130  0.78879286
   0.18994008  0.39155746  0.59665712
   0.06637025  0.14485763  0.20796921
   0.77605148  0.52564274  0.80021993
   0.69035034  0.40968622  0.60291219
   0.59937914  0.20387533  0.79635332
   0.54289578  0.07077146  0.60237556
   0.33773296  0.65872290 -0.00110305
   0.23464942  0.47003463  0.20074372
SQS with 1 vacancy for VFE and VRV      
           1
    -3.183658   -3.166945   -3.168852
     1.605560    1.616376   -7.968645
     7.931982   -7.898165   -1.576232
   Nb   Mo   Ta   Ti   W 
   6   5   6   6   6
Direct configuration=    21
   0.94845663  0.93424007  0.39688540
   0.63291818  0.26768603  0.40268351
   0.50427100  0.00149861 -0.00324216
   0.00465040  0.00161608  0.00224539
   0.10018985  0.20202556  0.79757094
   0.04683848  0.06079273  0.59702238
   0.90653918  0.79766689  0.20323316
   0.81077953  0.59178886  0.39841655
   0.73522107  0.46683634  0.20056751
   0.66546160  0.34044277 -0.00262665
   0.13484608  0.27001099  0.40081888
   0.83720890  0.66458030  0.00181293
   0.92115467  0.86897261  0.79891272
   0.56847613  0.13441684  0.19750957
   0.40787688  0.79336086  0.20155431
   0.43565463  0.85504625  0.79333484
   0.30540131  0.60539980  0.41074931
   0.81401085  0.73132758  0.59711110
   0.46066255  0.92773512  0.40976109
   0.17721974  0.33530644  0.00084799
   0.27710051  0.54103843  0.78849534
   0.18963230  0.39150378  0.59664699
   0.06680934  0.14488573  0.20804904
   0.77615836  0.52559590  0.80029210
   0.69039840  0.40944404  0.60289482
   0.59950072  0.20372225  0.79638145
   0.54313531  0.07052796  0.60237417
   0.33785479  0.65899546 -0.00105088
   0.23490593  0.47020238  0.20074819
SQS with 1 vacancy for VFE and VRV      
           1
    -3.184975   -3.164490   -3.169382
     1.604103    1.618482   -7.971206
     7.939920   -7.901038   -1.572184
   Nb   Mo   Ta   Ti   W 
   6   5   6   6   6
Direct configuration=    22
   0.94812558  0.93381909  0.39697787
   0.63318789  0.26735171  0.40274513
   0.50495177  0.00140429 -0.00316334
   0.00543532  0.00182068  0.00255437
   0.10034637  0.20138609  0.79771007
   0.04698588  0.06004570  0.59703748
   0.90701689  0.79792926  0.20301294
   0.81062618  0.59194274  0.39827228
   0.73550800  0.46703100  0.20045348
   0.66628539  0.34016993 -0.00294625
   0.13494855  0.26935755  0.40093325
   0.83779848  0.66486222  0.00168947
   0.92083109  0.86867169  0.79869161
   0.56914367  0.13508876  0.19733714
   0.40779934  0.79402333  0.20190176
   0.43565830  0.85525491  0.79400085
   0.30584902  0.60554780  0.41106421
   0.80684700  0.73108841  0.59722268
   0.45996525  0.92882625  0.40906006
   0.17784306  0.33553699  0.00079267
   0.27773346  0.54117253  0.78790059
   0.18901670  0.39139648  0.59662664
   0.06768764  0.14494187  0.20820877
   0.77637221  0.52550224  0.80043642
   0.69049453  0.40895975  0.60286004
   0.59974391  0.20341613  0.79643769
   0.54361439  0.07004100  0.60237138
   0.33809849  0.65954048 -0.00094648
   0.23541896  0.47053779  0.20075723
SQS with 1 vacancy for VFE and VRV      
           1
    -3.185628   -3.165870   -3.169973
     1.604944    1.619072   -7.973091
     7.941952   -7.904306   -1.573062
   Nb   Mo   Ta   Ti   W 
   6   5   6   6   6
Direct configuration=    23
   0.94810963  0.93371000  0.39700877
   0.63320151  0.26744077  0.40271701
   0.50503035  0.00149239 -0.00313419
   0.00539021  0.00183901  0.00250582