  29  29   0   0
  0.1679057E+02  0.5525242E-09  0.8287863E-09  0.1139058E-08  0.5000000E-15
  1.000000000000000E-004
  CAR 
 SQS with 1 vacancy for VFE and VRV      
     12.22145844    -50.21750921  301      6.86097508      1.00000000
    -50.218  0.0000E+00  0.0000E+00
    -50.009  0.0000E+00  0.0000E+00
    -49.801  0.0000E+00  0.0000E+00
    -49.593  0.0000E+00  0.0000E+00
    -49.385  0.0000E+00  0.0000E+00
    -49.177 -0.9969E-35 -0.2075E-35
    -48.969 -0.3976E-27 -0.8275E-28
    -48.761 -0.1787E-20 -0.3719E-21
    -48.552 -0.8732E-15 -0.1817E-15
    -48.344 -0.4820E-10 -0.1003E-10
    -48.136 -0.2867E-06 -0.5969E-07
    -47.928 -0.1743E-03 -0.3633E-04
    -47.720 -0.8877E-02 -0.1884E-02
    -47.512  0.1906E-01  0.2082E-02
    -47.304  0.3473E+00  0.7437E-01
    -47.096  0.1136E+01  0.3109E+00
    -46.887  0.1283E+01  0.5779E+00
    -46.679  0.1364E+00  0.6063E+00
    -46.471 -0.2884E-01  0.6003E+00
    -46.263 -0.1266E-02  0.6000E+00
    -46.055 -0.4955E-05  0.6000E+00
    -45.847 -0.2058E-08  0.6000E+00
    -45.639 -0.9387E-13  0.6000E+00
    -45.431  0.0000E+00  0.6000E+00
    -45.222  0.0000E+00  0.6000E+00
    -45.014  0.0000E+00  0.6000E+00
    -44.806  0.0000E+00  0.6000E+00
    -44.598  0.0000E+00  0.6000E+00
    -44.390  0.0000E+00  0.6000E+00
    -44.182  0.0000E+00  0.6000E+00
    -43.974  0.0000E+00  0.6000E+00
    -43.765  0.0000E+00  0.6000E+00
    -43.557  0.0000E+00  0.6000E+00
    -43.349  0.0000E+00  0.6000E+00
    -43.141  0.0000E+00  0.6000E+00
    -42.933  0.0000E+00  0.6000E+00
    -42.725  0.0000E+00  0.6000E+00
    -42.517  0.0000E+00  0.6000E+00
    -42.309  0.0000E+00  0.6000E+00
    -42.100  0.0000E+00  0.6000E+00
    -41.892  0.0000E+00  0.6000E+00
    -41.684  0.0000E+00  0.6000E+00
    -41.476  0.0000E+00  0.6000E+00
    -41.268  0.0000E+00  0.6000E+00
    -41.060  0.0000E+00  0.6000E+00
    -40.852  0.0000E+00  0.6000E+00
    -40.644  0.0000E+00  0.6000E+00
    -40.435  0.0000E+00  0.6000E+00
    -40.227  0.0000E+00  0.6000E+00
    -40.019  0.0000E+00  0.6000E+00
    -39.811  0.0000E+00  0.6000E+00
    -39.603  0.0000E+00  0.6000E+00
    -39.395  0.0000E+00  0.6000E+00
    -39.187  0.0000E+00  0.6000E+00
    -38.978  0.0000E+00  0.6000E+00
    -38.770  0.0000E+00  0.6000E+00
    -38.562  0.0000E+00  0.6000E+00
    -38.354  0.0000E+00  0.6000E+00
    -38.146  0.0000E+00  0.6000E+00
    -37.938  0.0000E+00  0.6000E+00
    -37.730  0.0000E+00  0.6000E+00
    -37.522  0.0000E+00  0.6000E+00
    -37.313  0.0000E+00  0.6000E+00
    -37.105  0.0000E+00  0.6000E+00
    -36.897  0.0000E+00  0.6000E+00
    -36.689  0.0000E+00  0.6000E+00
    -36.481  0.0000E+00  0.6000E+00
    -36.273  0.0000E+00  0.6000E+00
    -36.065  0.0000E+00  0.6000E+00
    -35.857  0.0000E+00  0.6000E+00
    -35.648  0.0000E+00  0.6000E+00
    -35.440  0.0000E+00  0.6000E+00
    -35.232  0.0000E+00  0.6000E+00
    -35.024  0.0000E+00  0.6000E+00
    -34.816  0.0000E+00  0.6000E+00
    -34.608  0.0000E+00  0.6000E+00
    -34.400  0.0000E+00  0.6000E+00
    -34.192  0.0000E+00  0.6000E+00
    -33.983  0.0000E+00  0.6000E+00
    -33.775  0.0000E+00  0.6000E+00
    -33.567  0.0000E+00  0.6000E+00
    -33.359  0.0000E+00  0.6000E+00
    -33.151  0.0000E+00  0.6000E+00
    -32.943  0.0000E+00  0.6000E+00
    -32.735  0.0000E+00  0.6000E+00
    -32.526  0.0000E+00  0.6000E+00
    -32.318  0.0000E+00  0.6000E+00
    -32.110  0.0000E+00  0.6000E+00
    -31.902  0.0000E+00  0.6000E+00
    -31.694  0.0000E+00  0.6000E+00
    -31.486  0.0000E+00  0.6000E+00
    -31.278  0.0000E+00  0.6000E+00
    -31.070  0.0000E+00  0.6000E+00
    -30.861  0.0000E+00  0.6000E+00
    -30.653  0.0000E+00  0.6000E+00
    -30.445  0.0000E+00  0.6000E+00
    -30.237  0.0000E+00  0.6000E+00
    -30.029  0.0000E+00  0.6000E+00
    -29.821  0.0000E+00  0.6000E+00
    -29.613  0.0000E+00  0.6000E+00
    -29.405  0.0000E+00  0.6000E+00
    -29.196  0.0000E+00  0.6000E+00
    -28.988  0.0000E+00  0.6000E+00
    -28.780  0.0000E+00  0.6000E+00
    -28.572  0.0000E+00  0.6000E+00
    -28.364  0.0000E+00  0.6000E+00
    -28.156  0.0000E+00  0.6000E+00
    -27.948  0.0000E+00  0.6000E+00
    -27.739  0.0000E+00  0.6000E+00
    -27.531  0.0000E+00  0.6000E+00
    -27.323  0.0000E+00  0.6000E+00
    -27.115  0.0000E+00  0.6000E+00
    -26.907  0.0000E+00  0.6000E+00
    -26.699  0.0000E+00  0.6000E+00
    -26.491  0.0000E+00  0.6000E+00
    -26.283  0.0000E+00  0.6000E+00
    -26.074  0.0000E+00  0.6000E+00
    -25.866  0.0000E+00  0.6000E+00
    -25.658 -0.2255E-33  0.6000E+00
    -25.450 -0.5146E-26  0.6000E+00
    -25.242 -0.1325E-19  0.6000E+00
    -25.034 -0.3742E-14  0.6000E+00
    -24.826 -0.1222E-09  0.6000E+00
    -24.618 -0.4597E-06  0.6000E+00
    -24.409 -0.2039E-03  0.6000E+00
    -24.201 -0.9959E-02  0.5979E+00
    -23.993  0.7241E-02  0.5994E+00
    -23.785  0.5362E+00  0.7110E+00
    -23.577  0.9747E+00  0.9139E+00
    -23.369  0.1610E+01  0.1249E+01
    -23.161  0.2780E+01  0.1828E+01
    -22.952  0.1969E+01  0.2237E+01
    -22.744  0.5305E+00  0.2348E+01
    -22.536  0.2093E+00  0.2391E+01
    -22.328  0.4826E-01  0.2401E+01
    -22.120 -0.5855E-02  0.2400E+01
    -21.912 -0.5946E-03  0.2400E+01
    -21.704 -0.3979E-05  0.2400E+01
    -21.496 -0.2647E-08  0.2400E+01
    -21.287 -0.1873E-12  0.2400E+01
    -21.079  0.0000E+00  0.2400E+01
    -20.871  0.0000E+00  0.2400E+01
    -20.663  0.0000E+00  0.2400E+01
    -20.455  0.0000E+00  0.2400E+01
    -20.247  0.0000E+00  0.2400E+01
    -20.039  0.0000E+00  0.2400E+01
    -19.831  0.0000E+00  0.2400E+01
    -19.622  0.0000E+00  0.2400E+01
    -19.414  0.0000E+00  0.2400E+01
    -19.206  0.0000E+00  0.2400E+01
    -18.998  0.0000E+00  0.2400E+01
    -18.790  0.0000E+00  0.2400E+01
    -18.582  0.0000E+00  0.2400E+01
    -18.374  0.0000E+00  0.2400E+01
    -18.166  0.0000E+00  0.2400E+01
    -17.957  0.0000E+00  0.2400E+01
    -17.749  0.0000E+00  0.2400E+01
    -17.541  0.0000E+00  0.2400E+01
    -17.333  0.0000E+00  0.2400E+01
    -17.125  0.0000E+00  0.2400E+01
    -16.917  0.0000E+00  0.2400E+01
    -16.709  0.0000E+00  0.2400E+01
    -16.500  0.0000E+00  0.2400E+01
    -16.292  0.0000E+00  0.2400E+01
    -16.084  0.0000E+00  0.2400E+01
    -15.876  0.0000E+00  0.2400E+01
    -15.668  0.0000E+00  0.2400E+01
    -15.460  0.0000E+00  0.2400E+01
    -15.252  0.0000E+00  0.2400E+01
    -15.044  0.0000E+00  0.2400E+01
    -14.835  0.0000E+00  0.2400E+01
    -14.627  0.0000E+00  0.2400E+01
    -14.419  0.0000E+00  0.2400E+01
    -14.211  0.0000E+00  0.2400E+01
    -14.003  0.0000E+00  0.2400E+01
    -13.795  0.0000E+00  0.2400E+01
    -13.587  0.0000E+00  0.2400E+01
    -13.379  0.0000E+00  0.2400E+01
    -13.170  0.0000E+00  0.2400E+01
    -12.962  0.0000E+00  0.2400E+01
    -12.754  0.0000E+00  0.2400E+01
    -12.546  0.0000E+00  0.2400E+01
    -12.338  0.0000E+00  0.2400E+01
    -12.130  0.0000E+00  0.2400E+01
    -11.922  0.0000E+00  0.2400E+01
    -11.713  0.0000E+00  0.2400E+01
    -11.505  0.0000E+00  0.2400E+01
    -11.297  0.0000E+00  0.2400E+01
    -11.089  0.0000E+00  0.2400E+01
    -10.881  0.0000E+00  0.2400E+01
    -10.673  0.0000E+00  0.2400E+01
    -10.465  0.0000E+00  0.2400E+01
    -10.257  0.0000E+00  0.2400E+01
    -10.048  0.0000E+00  0.2400E+01
     -9.840  0.0000E+00  0.2400E+01
     -9.632  0.0000E+00  0.2400E+01
     -9.424  0.0000E+00  0.2400E+01
     -9.216  0.0000E+00  0.2400E+01
     -9.008  0.0000E+00  0.2400E+01
     -8.800  0.0000E+00  0.2400E+01
     -8.592  0.0000E+00  0.2400E+01
     -8.383  0.0000E+00  0.2400E+01
     -8.175  0.0000E+00  0.2400E+01
     -7.967  0.0000E+00  0.2400E+01
     -7.759  0.0000E+00  0.2400E+01
     -7.551  0.0000E+00  0.2400E+01
     -7.343  0.0000E+00  0.2400E+01
     -7.135  0.0000E+00  0.2400E+01
     -6.926  0.0000E+00  0.2400E+01
     -6.718  0.0000E+00  0.2400E+01
     -6.510  0.0000E+00  0.2400E+01
     -6.302  0.0000E+00  0.2400E+01
     -6.094  0.0000E+00  0.2400E+01
     -5.886  0.0000E+00  0.2400E+01
     -5.678  0.0000E+00  0.2400E+01
     -5.470  0.0000E+00  0.2400E+01
     -5.261  0.0000E+00  0.2400E+01
     -5.053  0.0000E+00  0.2400E+01
     -4.845  0.0000E+00  0.2400E+01
     -4.637  0.0000E+00  0.2400E+01
     -4.429  0.0000E+00  0.2400E+01
     -4.221  0.0000E+00  0.2400E+01
     -4.013  0.0000E+00  0.2400E+01
     -3.805  0.0000E+00  0.2400E+01
     -3.596  0.0000E+00  0.2400E+01
     -3.388  0.0000E+00  0.2400E+01
     -3.180  0.0000E+00  0.2400E+01
     -2.972  0.0000E+00  0.2400E+01
     -2.764  0.0000E+00  0.2400E+01
     -2.556  0.0000E+00  0.2400E+01
     -2.348  0.0000E+00  0.2400E+01
     -2.140 -0.4772E-30  0.2400E+01
     -1.931 -0.2791E-23  0.2400E+01
     -1.723 -0.1850E-17  0.2400E+01
     -1.515 -0.1335E-12  0.2400E+01
     -1.307 -0.1115E-08  0.2400E+01
     -1.099 -0.1040E-05  0.2400E+01
     -0.891 -0.1040E-03  0.2400E+01
     -0.683 -0.7036E-03  0.2400E+01
     -0.474  0.7241E-02  0.2401E+01
     -0.266  0.3486E-01  0.2409E+01
     -0.058  0.6856E-01  0.2423E+01
      0.150  0.9511E-01  0.2443E+01
      0.358  0.6993E-01  0.2457E+01
      0.566  0.9475E-01  0.2477E+01
      0.774  0.1599E+00  0.2510E+01
      0.982  0.1586E+00  0.2543E+01
      1.191  0.1389E+00  0.2572E+01
      1.399  0.1725E+00  0.2608E+01
      1.607  0.2273E+00  0.2655E+01
      1.815  0.1831E+00  0.2693E+01
      2.023  0.2587E+00  0.2747E+01
      2.231  0.4405E+00  0.2839E+01
      2.439  0.6139E+00  0.2967E+01
      2.647  0.8594E+00  0.3146E+01
      2.856  0.9906E+00  0.3352E+01
      3.064  0.1177E+01  0.3597E+01
      3.272  0.1394E+01  0.3887E+01
      3.480  0.1449E+01  0.4189E+01
      3.688  0.1467E+01  0.4494E+01
      3.896  0.1505E+01  0.4807E+01
      4.104  0.1482E+01  0.5116E+01
      4.313  0.1287E+01  0.5384E+01
      4.521  0.1218E+01  0.5637E+01
      4.729  0.1543E+01  0.5958E+01
      4.937  0.1887E+01  0.6351E+01
      5.145  0.2056E+01  0.6779E+01
      5.353  0.2001E+01  0.7195E+01
      5.561  0.1830E+01  0.7576E+01
      5.769  0.1753E+01  0.7941E+01
      5.978  0.1841E+01  0.8324E+01
      6.186  0.1939E+01  0.8728E+01
      6.394  0.2001E+01  0.9144E+01
      6.602  0.1951E+01  0.9550E+01
      6.810  0.1759E+01  0.9916E+01
      7.018  0.1548E+01  0.1024E+02
      7.226  0.1213E+01  0.1049E+02
      7.434  0.8722E+00  0.1067E+02
      7.643  0.8014E+00  0.1084E+02
      7.851  0.7444E+00  0.1099E+02
      8.059  0.7566E+00  0.1115E+02
      8.267  0.9096E+00  0.1134E+02
      8.475  0.1003E+01  0.1155E+02
      8.683  0.8975E+00  0.1174E+02
      8.891  0.6475E+00  0.1187E+02
      9.100  0.3952E+00  0.1195E+02
      9.308  0.1993E+00  0.1199E+02
      9.516  0.2814E-01  0.1200E+02
      9.724 -0.3562E-02  0.1200E+02
      9.932 -0.4564E-03  0.1200E+02
     10.140 -0.5356E-05  0.1200E+02
     10.348 -0.7055E-08  0.1200E+02
     10.556 -0.1046E-11  0.1200E+02
     10.765 -0.1878E-16  0.1200E+02
     10.973  0.0000E+00  0.1200E+02
     11.181  0.0000E+00  0.1200E+02
     11.389  0.0000E+00  0.1200E+02
     11.597  0.0000E+00  0.1200E+02
     11.805  0.0000E+00  0.1200E+02
     12.013  0.0000E+00  0.1200E+02
     12.221  0.0000E+00  0.1200E+02
