   29   29   20    1
  0.1679057E+02  0.5525242E-09  0.8287863E-09  0.1139058E-08  0.5000000E-15
  1.000000000000000E-004
  CAR 
 SQS with 1 vacancy for VFE and VRV      
    200     63    120
 
  0.0000000E+00  0.0000000E+00  0.0000000E+00  0.8000000E-02
    1      -47.379374   1.000000
    2      -47.179536   1.000000
    3      -47.119811   1.000000
    4      -47.079709   1.000000
    5      -47.039424   1.000000
    6      -46.922273   1.000000
    7      -23.914428   1.000000
    8      -23.819266   1.000000
    9      -23.695378   1.000000
   10      -23.545225   1.000000
   11      -23.533905   1.000000
   12      -23.397522   1.000000
   13      -23.336849   1.000000
   14      -23.321248   1.000000
   15      -23.287161   1.000000
   16      -23.261914   1.000000
   17      -23.229347   1.000000
   18      -23.176036   1.000000
   19      -23.129446   1.000000
   20      -23.098767   1.000000
   21      -23.078451   1.000000
   22      -23.039563   1.000000
   23      -22.857853   1.000000
   24      -22.540881   1.000000
   25       -0.525927   1.000000
   26        0.844158   1.000000
   27        1.177262   1.000000
   28        2.049395   1.000000
   29        2.081570   1.000000
   30        2.200055   1.000000
   31        2.284817   1.000000
   32        2.392237   1.000000
   33        2.547813   1.000000
   34        2.642398   1.000000
   35        2.701332   1.000000
   36        2.722574   1.000000
   37        2.792560   1.000000
   38        2.902919   1.000000
   39        2.952314   1.000000
   40        3.074049   1.000000
   41        3.188434   1.000000
   42        3.217309   1.000000
   43        3.309205   1.000000
   44        3.411350   1.000000
   45        3.456399   1.000000
   46        3.517200   1.000000
   47        3.534898   1.000000
   48        3.654828   1.000000
   49        3.723907   1.000000
   50        3.819641   1.000000
   51        3.857524   1.000000
   52        3.936170   1.000000
   53        4.036975   1.000000
   54        4.055062   1.000000
   55        4.128035   1.000000
   56        4.194824   1.000000
   57        4.279274   1.000000
   58        4.418618   1.000000
   59        4.537925   1.000000
   60        4.622847   1.000000
   61        4.632434   1.000000
   62        4.675978   1.000000
   63        4.756724   1.000000
   64        4.827100   1.000000
   65        4.868222   1.000000
   66        4.916609   1.000000
   67        4.987043   1.000000
   68        5.014793   1.000000
   69        5.046924   1.000000
   70        5.068579   1.000000
   71        5.151091   1.000000
   72        5.211173   1.000000
   73        5.296442   1.000000
   74        5.339141   1.000000
   75        5.398991   1.000000
   76        5.535195   1.000000
   77        5.584289   1.000000
   78        5.653067   1.000000
   79        5.666439   1.000000
   80        5.784568   1.000000
   81        5.834475   1.000000
   82        5.938722   1.000000
   83        6.047414   1.000000
   84        6.080949   1.000000
   85        6.094481   1.000000
   86        6.165673   1.000005
   87        6.222967   1.000031
   88        6.307187   1.000321
   89        6.371056   1.001446
   90        6.389461   1.002137
   91        6.442815   1.005897
   92        6.570163   1.029643
   93        6.656973   1.027081
   94        6.719397   0.962597
   95        6.797216   0.755190
   96        6.804943   0.727089
   97        6.835747   0.605813
   98        6.976155   0.091094
   99        7.067411  -0.028153
  100        7.138841  -0.032155
  101        7.183279  -0.022534
  102        7.201556  -0.018421
  103        7.345865  -0.001612
  104        7.505549  -0.000025
  105        7.649068  -0.000000
  106        7.730599  -0.000000
  107        7.881543  -0.000000
  108        7.987564  -0.000000
  109        8.111714  -0.000000
  110        8.339185  -0.000000
  111        8.483921  -0.000000
  112        8.617558  -0.000000
  113        8.755481  -0.000000
  114        8.915098  -0.000000
  115        8.999646  -0.000000
  116        9.064558  -0.000000
  117        9.124383  -0.000000
  118        9.164027  -0.000000
  119        9.189916  -0.000000
  120        9.249812  -0.000000
 
  0.2000000E+00 -0.1387779E-16  0.0000000E+00  0.1600000E-01
    1      -47.379246   1.000000
    2      -47.171542   1.000000
    3      -47.116244   1.000000
    4      -47.079272   1.000000
    5      -47.038799   1.000000
    6      -46.933950   1.000000
    7      -23.830090   1.000000
    8      -23.788587   1.000000
    9      -23.691344   1.000000
   10      -23.543518   1.000000
   11      -23.529889   1.000000
   12      -23.399462   1.000000
   13      -23.340019   1.000000
   14      -23.316235   1.000000
   15      -23.288566   1.000000
   16      -23.268345   1.000000
   17      -23.236402   1.000000
   18      -23.177935   1.000000
   19      -23.131231   1.000000
   20      -23.109575   1.000000
   21      -23.084384   1.000000
   22      -23.045803   1.000000
   23      -22.858771   1.000000
   24      -22.676181   1.000000
   25       -0.201424   1.000000
   26        1.111677   1.000000
   27        1.456672   1.000000
   28        2.156454   1.000000
   29        2.285924   1.000000
   30        2.430304   1.000000
   31        2.490645   1.000000
   32        2.618802   1.000000
   33        2.665043   1.000000
   34        2.804849   1.000000
   35        2.867272   1.000000
   36        2.983339   1.000000
   37        3.016141   1.000000
   38        3.095023   1.000000
   39        3.158975   1.000000
   40        3.227151   1.000000
   41        3.284083   1.000000
   42        3.341896   1.000000
   43        3.384977   1.000000
   44        3.447016   1.000000
   45        3.581110   1.000000
   46        3.668589   1.000000
   47        3.703813   1.000000
   48        3.765343   1.000000
   49        3.881303   1.000000
   50        3.959089   1.000000
   51        3.974777   1.000000
   52        4.062061   1.000000
   53        4.116093   1.000000
   54        4.167146   1.000000
   55        4.253263   1.000000
   56        4.347679   1.000000
   57        4.382359   1.000000
   58        4.504078   1.000000
   59        4.584145   1.000000
   60        4.663010   1.000000
   61        4.766904   1.000000
   62        4.828287   1.000000
   63        4.846975   1.000000
   64        4.913088   1.000000
   65        4.976170   1.000000
   66        5.001194   1.000000
   67        5.060723   1.000000
   68        5.091602   1.000000
   69        5.154524   1.000000
   70        5.204977   1.000000
   71        5.277958   1.000000
   72        5.305423   1.000000
   73        5.373876   1.000000
   74        5.380690   1.000000
   75        5.447269   1.000000
   76        5.498650   1.000000
   77        5.561386   1.000000
   78        5.592958   1.000000
   79        5.655050   1.000000
   80        5.714104   1.000000
   81        5.778972   1.000000
   82        5.827759   1.000000
   83        5.949084   1.000000
   84        5.976840   1.000000
   85        6.077624   1.000000
   86        6.118756   1.000001
   87        6.228328   1.000036
   88        6.254591   1.000078
   89        6.335672   1.000646
   90        6.358034   1.001084
   91        6.410191   1.003237
   92        6.428670   1.004584
   93        6.509727   1.016169
   94        6.572470   1.030120
   95        6.604242   1.034965
   96        6.674434   1.016661
   97        6.767250   0.852382
   98        6.819782   0.670271
   99        6.898028   0.346162
  100        6.975737   0.092085
  101        7.017437   0.014618
  102        7.069834  -0.029134
  103        7.132934  -0.033135
  104        7.261263  -0.007958
  105        7.367883  -0.000991
  106        7.409947  -0.000362
  107        7.543495  -0.000008
  108        7.647892  -0.000000
  109        7.834497  -0.000000
  110        7.978579  -0.000000
  111        8.046487  -0.000000
  112        8.109542  -0.000000
  113        8.239958  -0.000000
  114        8.302496  -0.000000
  115        8.407650  -0.000000
  116        8.522478  -0.000000
  117        8.561827  -0.000000
  118        8.662082  -0.000000
  119        8.809594  -0.000000
  120        8.838491  -0.000000
 
  0.4000000E+00 -0.2775558E-16  0.0000000E+00  0.1600000E-01
    1      -47.379039   1.000000
    2      -47.159116   1.000000
    3      -47.106983   1.000000
    4      -47.078552   1.000000
    5      -47.037628   1.000000
    6      -46.955993   1.000000
    7      -23.823534   1.000000
    8      -23.688313   1.000000
    9      -23.563418   1.000000
   10      -23.539873   1.000000
   11      -23.451704   1.000000
   12      -23.401852   1.000000
   13      -23.345972   1.000000
   14      -23.310215   1.000000
   15      -23.282495   1.000000
   16      -23.277105   1.000000
   17      -23.248203   1.000000
   18      -23.180027   1.000000
   19      -23.140665   1.000000
   20      -23.126580   1.000000
   21      -23.094006   1.000000
   22      -23.069386   1.000000
   23      -23.002880   1.000000
   24      -22.855701   1.000000
   25        0.639427   1.000000
   26        1.554019   1.000000
   27        2.086487   1.000000
   28        2.211248   1.000000
   29        2.462694   1.000000
   30        2.633472   1.000000
   31        2.710552   1.000000
   32        2.905651   1.000000
   33        2.992894   1.000000
   34        3.097670   1.000000
   35        3.217734   1.000000
   36        3.299259   1.000000
   37        3.325587   1.000000
   38        3.378515   1.000000
   39        3.453358   1.000000
   40        3.519645   1.000000
   41        3.620016   1.000000
   42        3.654986   1.000000
   43        3.679475   1.000000
   44        3.729074   1.000000
   45        3.792540   1.000000
   46        3.901436   1.000000
   47        3.944357   1.000000
   48        4.087067   1.000000
   49        4.109763   1.000000
   50        4.144103   1.000000
   51        4.204537   1.000000
   52        4.308683   1.000000
   53        4.341135   1.000000
   54        4.413100   1.000000
   55        4.509297   1.000000
   56        4.592703   1.000000
   57        4.638853   1.000000
   58        4.666554   1.000000
   59        4.735095   1.000000
   60        4.780019   1.000000
   61        4.819201   1.000000
   62        4.865260   1.000000
   63        4.941076   1.000000
   64        4.982538   1.000000
   65        5.020355   1.000000
   66        5.060299   1.000000
   67        5.138627   1.000000
   68        5.154005   1.000000
   69        5.201015   1.000000
   70        5.269441   1.000000
   71        5.313076   1.000000
   72        5.369497   1.000000
   73        5.414012   1.000000
   74        5.476410   1.000000
   75        5.506744   1.000000
   76        5.540725   1.000000
   77        5.639217   1.000000
   78        5.688536   1.000000
   79        5.701132   1.000000
   80        5.741240   1.000000
   81        5.795355   1.000000
   82        5.886501   1.000000
   83        5.919119   1.000000
   84        6.003903   1.000000
   85        6.038990   1.000000
   86        6.076961   1.000000
   87        6.137891   1.000002
   88        6.192814   1.000012
   89        6.238171   1.000049
   90        6.271464   1.000125
   91        6.305556   1.000307
   92        6.350776   1.000919
   93        6.387104   1.002035
   94        6.432413   1.004906
   95        6.483931   1.011378
   96        6.561764   1.027827
   97        6.636221   1.033662
   98        6.674384   1.016698
   99        6.709526   0.978287
  100        6.761125   0.869687
  101        6.804290   0.729506
  102        6.862704   0.492683
  103        6.939405   0.194735
  104        6.946712   0.171546
  105        6.998316   0.044853
  106        7.083030  -0.033111
  107        7.119891  -0.034776
  108        7.168638  -0.025916
  109        7.288055  -0.005038
  110        7.448601  -0.000131
  111        7.542304  -0.000008
  112        7.664926  -0.000000
  113        7.728604  -0.000000
  114        7.815513  -0.000000
  115        7.934436  -0.000000
  116        7.995200  -0.000000
  117        8.097104  -0.000000
  118        8.245626  -0.000000
  119        8.375504  -0.000000
  120        8.446182  -0.000000
 
  0.0000000E+00  0.2000000E+00  0.1387779E-16  0.1600000E-01
    1      -47.379284   1.000000
    2      -47.179531   1.000000
    3      -47.119808   1.000000
    4      -47.079811   1.000000
    5      -47.039415   1.000000
    6      -46.922270   1.000000
    7      -23.914426   1.000000
    8      -23.817595   1.000000
    9      -23.692045   1.000000
   10      -23.545292   1.000000
   11      -23.533933   1.000000
   12      -23.397592   1.000000
   13      -23.336988   1.000000
   14      -23.321279   1.000000
   15      -23.287267   1.000000
   16      -23.261817   1.000000
   17      -23.229358   1.000000
   18      -23.176169   1.000000
   19      -23.129485   1.000000
   20      -23.098855   1.000000
   21      -23.083909   1.000000
   22      -23.039628   1.000000
   23      -22.857926   1.000000
   24      -22.540886   1.000000
   25       -0.388411   1.000000
   26        0.895437   1.000000
   27        1.247077   1.000000
   28        1.666918   1.000000
   29        2.009117   1.000000
   30        2.261638   1.000000
   31        2.329624   1.000000
   32        2.453905   1.000000
   33        2.562413   1.000000
   34        2.651492   1.000000
   35        2.697153   1.000000
   36        2.740375   1.000000
   37        2.842540   1.000000
   38        2.916513   1.000000
   39        2.956701   1.000000
   40        3.003173   1.000000
   41        3.105231   1.000000
   42        3.154980   1.000000
   43        3.220358   1.000000
   44        3.406869   1.000000
   45        3.435878   1.000000
   46        3.510149   1.000000
   47        3.617729   1.000000
   48        3.713726   1.000000
   49        3.779945   1.000000
   50        3.830424   1.000000
   51        3.909020   1.000000
   52        3.948656   1.000000
   53        3.981094   1.000000
   54        4.045577   1.000000
   55        4.178986   1.000000
   56        4.282995   1.000000
   57        4.329539   1.000000
   58        4.501221   1.000000
   59        4.546178   1.000000
   60        4.599592   1.000000
   61        4.669053   1.000000
   62        4.746818   1.000000
   63        4.811209   1.000000
   64        4.869115   1.000000
   65        4.954687   1.000000
   66        4.971166   1.000000
   67        5.018476   1.000000
   68        5.047720   1.000000
   69        5.074993   1.000000
   70        5.116206   1.000000
   71        5.188628   1.000000
   72        5.253782   1.000000
   73        5.286462   1.000000
   74        5.406363   1.000000
   75        5.441411   1.000000
   76        5.499106   1.000000
   77        5.618096   1.000000
   78        5.663657   1.000000
   79        5.778519   1.000000
   80        5.819483   1.000000
   81        5.848535   1.000000
   82        5.968459   1.000000
   83        5.983525   1.000000
   84        6.067600   1.000000
   85        6.093442   1.000000
   86        6.140735   1.000002
   87        6.176530   1.000007
   88        6.234945   1.000044
   89        6.289778   1.000204
   90        6.323681   1.000484
   91        6.383452   1.001885
   92        6.394123   1.002351
   93        6.476826   1.010240
   94        6.539857   1.022808
   95        6.643497   1.031981
   96        6.690381   1.002385
   97        6.791217   0.776210
   98        6.901517   0.332298
   99        6.967296   0.113041
  100        7.231554  -0.012482
  101        7.273067  -0.006544
  102        7.397055  -0.000498
  103        7.436958  -0.000180
  104        7.500370  -0.000030
  105        7.594528  -0.000001
  106        7.777544  -0.000000
  107        7.917494  -0.000000
  108        7.971485  -0.000000
  109        8.088636  -0.000000
  110        8.136446  -0.000000
  111        8.233450  -0.000000
  112        8.334966  -0.000000
  113        8.461480  -0.000000
  114        8.665014  -0.000000
  115        8.736745  -0.000000
  116        8.862561  -0.000000
  117        8.975902  -0.000000
  118        9.013138  -0.000000
  119        9.067699  -0.000000
  120        9.163150  -0.000000
 
  0.2000000E+00  0.2000000E+00 -0.4857226E-16  0.1600000E-01
    1      -47.379329   1.000000
    2      -47.171546   1.000000
    3      -47.116247   1.000000
    4      -47.079178   1.000000
    5      -47.038808   1.000000
    6      -46.933952   1.000000
    7      -23.831146   1.000000
    8      -23.789108   1.000000
    9      -23.694512   1.000000
   10      -23.543510   1.000000
   11      -23.529864   1.000000
   12      -23.399419   1.000000
   13      -23.339879   1.000000
   14      -23.316160   1.000000
   15      -23.288439   1.000000
   16      -23.268329   1.000000
   17      -23.236392   1.000000
   18      -23.177820   1.000000
   19      -23.131207   1.000000
   20      -23.109482   1.000000
   21      -23.079290   1.000000
   22      -23.045717   1.000000
   23      -22.858716   1.000000
   24      -22.676166   1.000000
   25       -0.193885   1.000000
   26        1.072850   1.000000
   27        1.470459   1.000000
   28        2.059589   1.000000
   29        2.261629   1.000000
   30        2.394770   1.000000
   31        2.468090   1.000000
   32        2.523367   1.000000
   33        2.665300   1.000000
   34        2.779712   1.000000
   35        2.846705   1.000000
   36        2.941890   1.000000
   37        3.031041   1.000000
   38        3.044486   1.000000
   39        3.138734   1.000000
   40        3.206152   1.000000
   41        3.254182   1.000000
   42        3.360767   1.000000
   43        3.423794   1.000000
   44        3.464338   1.000000
   45        3.608486   1.000000
   46        3.657524   1.000000
   47        3.700199   1.000000
   48        3.814139   1.000000
   49        3.885913   1.000000
   50        3.941398   1.000000
   51        4.015384   1.000000
   52        4.052413   1.000000
   53        4.128504   1.000000
   54        4.214591   1.000000
   55        4.282553   1.000000
   56        4.340610   1.000000
   57        4.393650   1.000000
   58        4.498294   1.000000
   59        4.599398   1.000000
   60        4.651597   1.000000
   61        4.715886   1.000000
   62        4.782577   1.000000
   63        4.838528   1.000000
   64        4.927213   1.000000
   65        4.940392   1.000000
   66        4.989928   1.000000
   67        5.033781   1.000000
   68        5.082074   1.000000
   69        5.131420   1.000000
   70        5.165592   1.000000
   71        5.189603   1.000000
   72        5.282633   1.000000
   73        5.314693   1.000000
   74        5.376205   1.000000
   75        5.424349   1.000000
   76        5.503571   1.000000
   77        5.590706   1.000000
   78        5.644668   1.000000
   79        5.689642   1.000000
   80        5.738991   1.000000
   81        5.785634   1.000000
   82        5.866752   1.000000
   83        5.939920   1.000000
   84        5.950653   1.000000
   85        6.067623   1.000000
   86        6.133709   1.000002
   87        6.205703   1.000018
   88        6.263962   1.000102
   89        6.307428   1.000322
   90        6.335289   1.000640
   91        6.420589   1.003947
   92        6.469884   1.009208
   93        6.512435   1.016727
   94        6.555045   1.026312
   95        6.681990   1.010508
   96        6.749654   0.899589
   97        6.785824   0.794468
   98        6.858562   0.510212
   99        6.937912   0.199622
  100        6.991791   0.057193
  101        7.070584  -0.029422
  102        7.126330  -0.034067
  103        7.198417  -0.019108
  104        7.242810  -0.010602
  105        7.335363  -0.002013
  106        7.445596  -0.000143
  107        7.520454  -0.000016
  108        7.593752  -0.000001
  109        7.669794  -0.000000
  110        7.903137  -0.000000
  111        8.086178  -0.000000
  112        8.167017  -0.000000
  113        8.440163  -0.000000
  114        8.557336  -0.000000
  115        8.733531  -0.000000
  116        8.793652  -0.000000
  117        8.939844  -0.000000
  118        9.034218  -0.000000
  119        9.063000  -0.000000
  120        9.171213  -0.000000
 
  0.4000000E+00  0.2000000E+00 -0.5551115E-16  0.1600000E-01
    1      -47.379175   1.000000
    2      -47.159124   1.000000
    3      -47.106987   1.000000
    4      -47.078399   1.000000
    5      -47.037642   1.000000
    6      -46.955996   1.000000
    7      -23.825806   1.000000
    8      -23.693988   1.000000
    9      -23.563381   1.000000
   10      -23.539865   1.000000
   11      -23.451645   1.000000
   12      -23.401775   1.000000
   13      -23.345772   1.000000
   14      -23.310049   1.000000
   15      -23.282360   1.000000
   16      -23.277051   1.000000
   17      -23.248188   1.000000
   18      -23.179805   1.000000
   19      -23.140636   1.000000
   20      -23.126451   1.000000
   21      -23.085601   1.000000
   22      -23.069189   1.000000
   23      -23.002815   1.000000
   24      -22.855611   1.000000
   25        0.554596   1.000000
   26        1.514659   1.000000
   27        1.950627   1.000000
   28        2.177690   1.000000
   29        2.272993   1.000000
   30        2.497112   1.000000
   31        2.767679   1.000000
   32        2.989869   1.000000
   33        3.051457   1.000000
   34        3.187073   1.000000
   35        3.242831   1.000000
   36        3.312562   1.000000
   37        3.386316   1.000000
   38        3.422720   1.000000
   39        3.496301   1.000000
   40        3.546935   1.000000
   41        3.609042   1.000000
   42        3.629590   1.000000
   43        3.696870   1.000000
   44        3.735785   1.000000
   45        3.808678   1.000000
   46        3.855441   1.000000
   47        3.948204   1.000000
   48        4.001629   1.000000
   49        4.058333   1.000000
   50        4.134668   1.000000
   51        4.156408   1.000000
   52        4.218154   1.000000
   53        4.306451   1.000000
   54        4.373852   1.000000
   55        4.417466   1.000000
   56        4.539943   1.000000
   57        4.568641   1.000000
   58        4.640760   1.000000
   59        4.701239   1.000000
   60        4.779262   1.000000
   61        4.868358   1.000000
   62        4.906723   1.000000
   63        4.912350   1.000000
   64        4.965717   1.000000
   65        5.015288   1.000000
   66        5.052170   1.000000
   67        5.092687   1.000000
   68        5.185837   1.000000
   69        5.222690   1.000000
   70        5.282362   1.000000
   71        5.344613   1.000000
   72        5.361191   1.000000
   73        5.442083   1.000000
   74        5.484803   1.000000
   75        5.518239   1.000000
   76        5.544843   1.000000
   77        5.632409   1.000000
   78        5.688155   1.000000
   79        5.712982   1.000000
   80        5.776518   1.000000
   81        5.818580   1.000000
   82        5.895519   1.000000
   83        5.916427   1.000000
   84        6.002518   1.000000
   85        6.028556   1.000000
   86        6.054317   1.000000
   87        6.096323   1.000000
   88        6.136792   1.000002
   89        6.205241   1.000018
   90        6.243197   1.000056
   91        6.281943   1.000166
   92        6.332319   1.000596
   93        6.417350   1.003713
   94        6.425913   1.004358
   95        6.470463   1.009291
   96        6.491293   1.012641
   97        6.582008   1.031959
   98        6.615237   1.035456
   99        6.680040   1.012199
  100        6.742631   0.916265
  101        6.811969   0.700619
  102        6.874658   0.442252
  103        6.943304   0.182208
  104        6.981623   0.078538
  105        7.034851  -0.005730
  106        7.066131  -0.027600
  107        7.137356  -0.032413
  108        7.219096  -0.014795
  109        7.351954  -0.001413
  110        7.551260  -0.000006
  111        7.773461  -0.000000
  112        7.876291  -0.000000
  113        8.039570  -0.000000
  114        8.101065  -0.000000
  115        8.220168  -0.000000
  116        8.330219  -0.000000
  117        8.421470  -0.000000
  118        8.440756  -0.000000
  119        8.513051  -0.000000
  120        8.561119  -0.000000
 
 -0.4000000E+00  0.2000000E+00 -0.3908332E-16  0.1600000E-01
    1      -47.379035   1.000000
    2      -47.159115   1.000000
    3      -47.106984   1.000000
    4      -47.078556   1.000000
    5      -47.037628   1.000000
    6      -46.955993   1.000000
    7      -23.823465   1.000000
    8      -23.688264   1.000000
    9      -23.563428   1.000000
   10      -23.539897   1.000000
   11      -23.451712   1.000000
   12      -23.401860   1.000000
   13      -23.345949   1.000000
   14      -23.310201   1.000000
   15      -23.282503   1.000000
   16      -23.277040   1.000000
   17      -23.248208   1.000000
   18      -23.180041   1.000000
   19      -23.140657   1.000000
   20      -23.126587   1.000000
   21      -23.094193   1.000000
   22      -23.069376   1.000000
   23      -23.002886   1.000000
   24      -22.855710   1.000000
   25        0.891007   1.000000
   26        1.507120   1.000000
   27        1.809227   1.000000
   28        2.275425   1.000000
   29        2.316525   1.000000
   30        2.552928   1.000000
   31        2.722744   1.000000
   32        2.870034   1.000000
   33        3.059426   1.000000
   34        3.133461   1.000000
   35        3.179084   1.000000
   36        3.250418   1.000000
   37        3.331274   1.000000
   38        3.397507   1.000000
   39        3.443125   1.000000
   40        3.474727   1.000000
   41        3.540925   1.000000
   42        3.629295   1.000000
   43        3.711783   1.000000
   44        3.761456   1.000000
   45        3.816626   1.000000
   46        3.928177   1.000000
   47        3.968944   1.000000
   48        4.057337   1.000000
   49        4.117129   1.000000
   50        4.199905   1.000000
   51        4.262545   1.000000
   52        4.336420   1.000000
   53        4.454546   1.000000
   54        4.470780   1.000000
   55        4.511066   1.000000
   56        4.578535   1.000000
   57        4.632570   1.000000
   58        4.681435   1.000000
   59        4.765513   1.000000
   60        4.794839   1.000000
   61        4.832842   1.000000
   62        4.862289   1.000000
   63        4.934399   1.000000
   64        4.966086   1.000000
   65        5.039157   1.000000
   66        5.089683   1.000000
   67        5.117128   1.000000
   68        5.140511   1.000000
   69        5.179954   1.000000
   70        5.247598   1.000000
   71        5.279398   1.000000
   72        5.333453   1.000000
   73        5.377443   1.000000
   74        5.436350   1.000000
   75        5.500568   1.000000
   76        5.524395   1.000000
   77        5.574091   1.000000
   78        5.667884   1.000000
   79        5.739699   1.000000
   80        5.808357   1.000000
   81        5.850534   1.000000
   82        5.887958   1.000000
   83        5.919228   1.000000
   84        5.959588   1.000000
   85        6.017299   1.000000
   86        6.049576   1.000000
   87        6.139087   1.000002
   88        6.211626   1.000022
   89        6.232004   1.000041
   90        6.270360   1.000121
   91        6.302144   1.000282
   92        6.378117   1.001684
   93        6.397997   1.002543
   94        6.449004   1.006557
   95        6.477072   1.010278
   96        6.503764   1.014973
   97        6.600676   1.034642
   98        6.628418   1.034815
   99        6.685549   1.007234
  100        6.720015   0.961538
  101        6.795016   0.762981
  102        6.871252   0.456578
  103        6.893146   0.365807
  104        6.942488   0.184801
  105        7.047753  -0.016836
  106        7.102116  -0.035401
  107        7.184017  -0.022364
  108        7.217460  -0.015116
  109        7.297483  -0.004243
  110        7.389132  -0.000603
  111        7.497627  -0.000032
  112        7.620291  -0.000001
  113        7.764113  -0.000000
  114        7.927001  -0.000000
  115        8.001441  -0.000000
  116        8.123422  -0.000000
  117        8.277019  -0.000000
  118        8.375755  -0.000000
  119        8.432795  -0.000000
  120        8.470598  -0.000000
 
 -0.2000000E+00  0.2000000E+00  0.1006140E-15  0.1600000E-01
    1      -47.379103   1.000000
    2      -47.171533   1.000000
    3      -47.116240   1.000000
    4      -47.079433   1.000000
    5      -47.038784   1.000000
    6      -46.933946   1.000000
    7      -23.828371   1.000000
    8      -23.787678   1.000000
    9      -23.685787   1.000000
   10      -23.543608   1.000000
   11      -23.529930   1.000000
   12      -23.399560   1.000000
   13      -23.340220   1.000000
   14      -23.316322   1.000000
   15      -23.288758   1.000000
   16      -23.268218   1.000000
   17      -23.236420   1.000000
   18      -23.178177   1.000000
   19      -23.131264   1.000000
   20      -23.109728   1.000000
   21      -23.093269   1.000000
   22      -23.045930   1.000000
   23      -22.858885   1.000000
   24      -22.676191   1.000000
   25        0.045386   1.000000
   26        1.149763   1.000000
   27        1.496484   1.000000
   28        1.811968   1.000000
   29        2.154775   1.000000
   30        2.516310   1.000000
   31        2.600943   1.000000
   32        2.713216   1.000000
   33        2.749426   1.000000
   34        2.851183   1.000000
   35        2.884118   1.000000
   36        2.954428   1.000000
   37        2.998002   1.000000
   38        3.086781   1.000000
   39        3.117912   1.000000
   40        3.159095   1.000000
   41        3.217399   1.000000
   42        3.296038   1.000000
   43        3.352731   1.000000
   44        3.447972   1.000000
   45        3.474630   1.000000
   46        3.626640   1.000000
   47        3.711818   1.000000