       N       E                     dE             d eps       ncg     rms          rms(c)
DAV:   1     0.210279501748E+04    0.21028E+04   -0.94083E+04 15120   0.177E+03
DAV:   2     0.522916914506E+02   -0.20505E+04   -0.19917E+04 15128   0.531E+02
DAV:   3    -0.306405518367E+03   -0.35870E+03   -0.34182E+03 26360   0.176E+02
DAV:   4    -0.350532618746E+03   -0.44127E+02   -0.40695E+02 23376   0.583E+01
DAV:   5    -0.355503016389E+03   -0.49704E+01   -0.48334E+01 28872   0.213E+01    0.760E+01
DAV:   6    -0.345967147121E+03    0.95359E+01   -0.10602E+02 21664   0.308E+01    0.359E+01
DAV:   7    -0.357855602990E+03   -0.11888E+02   -0.30521E+02 21528   0.625E+01    0.266E+01
DAV:   8    -0.339671349808E+03    0.18184E+02   -0.48177E+01 21768   0.253E+01    0.143E+01
DAV:   9    -0.335430331498E+03    0.42410E+01   -0.15807E+01 22904   0.116E+01    0.819E+00
DAV:  10    -0.334460960578E+03    0.96937E+00   -0.82606E+00 22776   0.840E+00    0.517E+00
DAV:  11    -0.334229494620E+03    0.23147E+00   -0.32610E+00 22208   0.456E+00    0.293E+00
DAV:  12    -0.334227389660E+03    0.21050E-02   -0.13560E+00 23056   0.333E+00    0.227E+00
DAV:  13    -0.334201078225E+03    0.26311E-01   -0.74670E-01 22984   0.253E+00    0.166E+00
DAV:  14    -0.334159969493E+03    0.41109E-01   -0.37977E-01 22240   0.182E+00    0.769E-01
DAV:  15    -0.334155974840E+03    0.39947E-02   -0.10980E-01 23032   0.945E-01    0.519E-01
DAV:  16    -0.334154596740E+03    0.13781E-02   -0.39110E-02 22160   0.571E-01    0.370E-01
DAV:  17    -0.334153007789E+03    0.15890E-02   -0.13343E-02 20496   0.336E-01    0.166E-01
DAV:  18    -0.334152989336E+03    0.18453E-04   -0.35936E-03 20712   0.207E-01    0.125E-01
DAV:  19    -0.334152829437E+03    0.15990E-03   -0.24039E-03 19696   0.150E-01    0.601E-02
DAV:  20    -0.334152797413E+03    0.32024E-04   -0.61213E-04 15536   0.874E-02
   1 F= -.33415280E+03 E0= -.33414678E+03  d E =-.334153E+03
       N       E                     dE             d eps       ncg     rms          rms(c)
DAV:   1    -0.335677152270E+03   -0.15243E+01   -0.11115E+02 19264   0.452E+01    0.126E+01
DAV:   2    -0.335972828529E+03   -0.29568E+00   -0.23877E+01 23600   0.210E+01    0.884E+00
DAV:   3    -0.334848519787E+03    0.11243E+01   -0.14724E+01 22488   0.110E+01    0.619E+00
DAV:   4    -0.334529931381E+03    0.31859E+00   -0.63182E+00 23344   0.807E+00    0.359E+00
DAV:   5    -0.334334218630E+03    0.19571E+00   -0.20285E+00 22528   0.490E+00    0.231E+00
DAV:   6    -0.334269201612E+03    0.65017E-01   -0.86895E-01 23704   0.280E+00    0.149E+00
DAV:   7    -0.334270999770E+03   -0.17982E-02   -0.28737E-01 23832   0.155E+00    0.103E+00
DAV:   8    -0.334270829962E+03    0.16981E-03   -0.94190E-02 23896   0.871E-01    0.701E-01
DAV:   9    -0.334275378562E+03   -0.45486E-02   -0.42652E-02 22696   0.676E-01    0.553E-01
DAV:  10    -0.334278271919E+03   -0.28934E-02   -0.40445E-02 23480   0.613E-01    0.446E-01
DAV:  11    -0.334278003854E+03    0.26806E-03   -0.24782E-02 23008   0.483E-01    0.231E-01
DAV:  12    -0.334277712503E+03    0.29135E-03   -0.91376E-03 22848   0.273E-01    0.124E-01
DAV:  13    -0.334277698233E+03    0.14269E-04   -0.20458E-03 21544   0.131E-01    0.642E-02
DAV:  14    -0.334277709339E+03   -0.11106E-04   -0.47533E-04 14736   0.789E-02
   2 F= -.33427771E+03 E0= -.33427256E+03  d E =-.124912E+00
       N       E                     dE             d eps       ncg     rms          rms(c)
DAV:   1    -0.334630008605E+03   -0.35231E+00   -0.18704E+01 18936   0.185E+01    0.520E+00
DAV:   2    -0.334679427835E+03   -0.49419E-01   -0.37737E+00 25264   0.821E+00    0.416E+00
DAV:   3    -0.334541259405E+03    0.13817E+00   -0.34985E+00 22704   0.572E+00    0.282E+00
DAV:   4    -0.334449253509E+03    0.92006E-01   -0.94211E-01 24472   0.301E+00    0.152E+00
DAV:   5    -0.334416500751E+03    0.32753E-01   -0.46547E-01 22576   0.227E+00    0.111E+00
DAV:   6    -0.334400141086E+03    0.16360E-01   -0.19433E-01 23176   0.134E+00    0.645E-01
DAV:   7    -0.334400490263E+03   -0.34918E-03   -0.55830E-02 22912   0.704E-01    0.498E-01
DAV:   8    -0.334400095705E+03    0.39456E-03   -0.26315E-02 22976   0.475E-01    0.391E-01
DAV:   9    -0.334399905175E+03    0.19053E-03   -0.13973E-02 21848   0.327E-01    0.265E-01
DAV:  10    -0.334400354091E+03   -0.44892E-03   -0.64133E-03 21968   0.238E-01    0.175E-01
DAV:  11    -0.334400575869E+03   -0.22178E-03   -0.41747E-03 22960   0.209E-01    0.107E-01
DAV:  12    -0.334400521449E+03    0.54420E-04   -0.20582E-03 21088   0.124E-01    0.598E-02
DAV:  13    -0.334400503096E+03    0.18353E-04   -0.33565E-04 12264   0.668E-02
   3 F= -.33440050E+03 E0= -.33439493E+03  d E =-.247706E+00
       N       E                     dE             d eps       ncg     rms          rms(c)
DAV:   1    -0.334479625955E+03   -0.79105E-01   -0.74090E+01 15120   0.279E+01    0.361E+00
DAV:   2    -0.334739694069E+03   -0.26007E+00   -0.44798E+00 23440   0.832E+00    0.244E+00
DAV:   3    -0.334719308016E+03    0.20386E-01   -0.10212E+00 22008   0.349E+00    0.210E+00
DAV:   4    -0.334679913030E+03    0.39395E-01   -0.51972E-01 22784   0.233E+00    0.147E+00
DAV:   5    -0.334660025106E+03    0.19888E-01   -0.27474E-01 23624   0.157E+00    0.903E-01
DAV:   6    -0.334656608827E+03    0.34163E-02   -0.13406E-01 23032   0.115E+00    0.680E-01
DAV:   7    -0.334650096580E+03    0.65122E-02   -0.68443E-02 24888   0.787E-01    0.392E-01
DAV:   8    -0.334648997106E+03    0.10995E-02   -0.19258E-02 22416   0.394E-01    0.281E-01
DAV:   9    -0.334648769149E+03    0.22796E-03   -0.60778E-03 20224   0.216E-01    0.197E-01
DAV:  10    -0.334648890802E+03   -0.12165E-03   -0.18862E-03 20024   0.142E-01    0.115E-01
DAV:  11    -0.334648979732E+03   -0.88930E-04   -0.16429E-03 20808   0.134E-01    0.701E-02
DAV:  12    -0.334648907741E+03    0.71991E-04   -0.99588E-04 17696   0.105E-01
   4 F= -.33464891E+03 E0= -.33464451E+03  d E =-.248405E+00
       N       E                     dE             d eps       ncg     rms          rms(c)
DAV:   1    -0.334649459386E+03   -0.47965E-03   -0.68999E-01 15400   0.268E+00    0.329E-01
DAV:   2    -0.334651557548E+03   -0.20982E-02   -0.37642E-02 23208   0.777E-01    0.220E-01
DAV:   3    -0.334651435246E+03    0.12230E-03   -0.85663E-03 22232   0.319E-01    0.189E-01
DAV:   4    -0.334651104117E+03    0.33113E-03   -0.42625E-03 20416   0.214E-01    0.129E-01
DAV:   5    -0.334650970714E+03    0.13340E-03   -0.24715E-03 19592   0.148E-01    0.861E-02
DAV:   6    -0.334650930256E+03    0.40458E-04   -0.11483E-03 18240   0.113E-01    0.645E-02
DAV:   7    -0.334650860639E+03    0.69618E-04   -0.51014E-04 13632   0.860E-02
   5 F= -.33465086E+03 E0= -.33464657E+03  d E =-.250358E+00
       N       E                     dE             d eps       ncg     rms          rms(c)
DAV:   1    -0.334673680908E+03   -0.22751E-01   -0.54663E+00 15192   0.773E+00    0.993E-01
DAV:   2    -0.334709134683E+03   -0.35454E-01   -0.43328E-01 22984   0.262E+00    0.117E+00
DAV:   3    -0.334690942839E+03    0.18192E-01   -0.18944E-01 21808   0.137E+00    0.600E-01
DAV:   4    -0.334689043732E+03    0.18991E-02   -0.42679E-02 23200   0.681E-01    0.429E-01
DAV:   5    -0.334687499508E+03    0.15442E-02   -0.26502E-02 22432   0.499E-01    0.279E-01
DAV:   6    -0.334687156656E+03    0.34285E-03   -0.13608E-02 22912   0.363E-01    0.227E-01
DAV:   7    -0.334686426242E+03    0.73041E-03   -0.80850E-03 21336   0.259E-01    0.115E-01
DAV:   8    -0.334686268033E+03    0.15821E-03   -0.15604E-03 19808   0.120E-01    0.679E-02
DAV:   9    -0.334686254414E+03    0.13618E-04   -0.27659E-04 11480   0.598E-02
   6 F= -.33468625E+03 E0= -.33468241E+03  d E =-.353938E-01
       N       E                     dE             d eps       ncg     rms          rms(c)
DAV:   1    -0.334687956849E+03   -0.16888E-02   -0.23288E+00 15128   0.504E+00    0.659E-01
DAV:   2    -0.334702731399E+03   -0.14775E-01   -0.18489E-01 23000   0.172E+00    0.759E-01
DAV:   3    -0.334695240784E+03    0.74906E-02   -0.79862E-02 21784   0.885E-01    0.398E-01
DAV:   4    -0.334694409691E+03    0.83109E-03   -0.19345E-02 22384   0.456E-01    0.286E-01
DAV:   5    -0.334693688204E+03    0.72149E-03   -0.11952E-02 22408   0.335E-01    0.183E-01
DAV:   6    -0.334693535922E+03    0.15228E-03   -0.58626E-03 21888   0.240E-01    0.149E-01
DAV:   7    -0.334693216559E+03    0.31936E-03   -0.34461E-03 19968   0.171E-01    0.736E-02
DAV:   8    -0.334693147729E+03    0.68830E-04   -0.59775E-04 15424   0.825E-02
   7 F= -.33469315E+03 E0= -.33468958E+03  d E =-.422871E-01
       N       E                     dE             d eps       ncg     rms          rms(c)
DAV:   1    -0.334732507776E+03   -0.39291E-01   -0.45515E+00 15888   0.873E+00    0.221E+00
DAV:   2    -0.334730104454E+03    0.24033E-02   -0.57463E-01 23104   0.318E+00    0.125E+00
DAV:   3    -0.334732065911E+03   -0.19615E-02   -0.43325E-01 22080   0.209E+00    0.118E+00
DAV:   4    -0.334710380281E+03    0.21686E-01   -0.20367E-01 23024   0.147E+00    0.611E-01
DAV:   5    -0.334706118025E+03    0.42623E-02   -0.77295E-02 22400   0.876E-01    0.448E-01
DAV:   6    -0.334703223085E+03    0.28949E-02   -0.28574E-02 23456   0.484E-01    0.214E-01
DAV:   7    -0.334703224426E+03   -0.13413E-05   -0.59477E-03 23352   0.246E-01    0.149E-01
DAV:   8    -0.334703330802E+03   -0.10638E-03   -0.23686E-03 19968   0.133E-01    0.115E-01
DAV:   9    -0.334703393960E+03   -0.63157E-04   -0.11843E-03 18936   0.107E-01    0.868E-02
DAV:  10    -0.334703488017E+03   -0.94058E-04   -0.40785E-04 12368   0.847E-02
   8 F= -.33470349E+03 E0= -.33470034E+03  d E =-.103403E-01
       N       E                     dE             d eps       ncg     rms          rms(c)
DAV:   1    -0.334706763092E+03   -0.33691E-02   -0.29856E-01 16072   0.224E+00    0.568E-01
DAV:   2    -0.334706976767E+03   -0.21368E-03   -0.39388E-02 23512   0.814E-01    0.335E-01
DAV:   3    -0.334707050996E+03   -0.74229E-04   -0.29607E-02 22592   0.544E-01    0.307E-01
DAV:   4    -0.334705535600E+03    0.15154E-02   -0.12278E-02 22944   0.359E-01    0.151E-01
DAV:   5    -0.334705315277E+03    0.22032E-03   -0.51579E-03 21416   0.227E-01    0.120E-01
DAV:   6    -0.334705101078E+03    0.21420E-03   -0.22075E-03 20224   0.138E-01    0.552E-02
DAV:   7    -0.334705081763E+03    0.19315E-04   -0.50044E-04 14408   0.833E-02
   9 F= -.33470508E+03 E0= -.33470182E+03  d E =-.119340E-01
       N       E                     dE             d eps       ncg     rms          rms(c)
DAV:   1    -0.334707545015E+03   -0.24439E-02   -0.62710E-01 16368   0.264E+00    0.170E-01
DAV:   2    -0.334710807119E+03   -0.32621E-02   -0.33067E-02 22800   0.791E-01    0.231E-01
DAV:   3    -0.334710051442E+03    0.75568E-03   -0.84224E-03 23216   0.313E-01    0.115E-01
DAV:   4    -0.334709970773E+03    0.80669E-04   -0.15459E-03 20288   0.124E-01    0.827E-02
DAV:   5    -0.334709919824E+03    0.50950E-04   -0.48437E-04 13888   0.781E-02
  10 F= -.33470992E+03 E0= -.33470676E+03  d E =-.483806E-02
       N       E                     dE             d eps       ncg     rms          rms(c)
DAV:   1    -0.334696598120E+03    0.13373E-01   -0.48617E+00 16424   0.734E+00    0.512E-01
DAV:   2    -0.334722533891E+03   -0.25936E-01   -0.26358E-01 22952   0.221E+00    0.712E-01
DAV:   3    -0.334715473407E+03    0.70605E-02   -0.73418E-02 23368   0.903E-01    0.341E-01
DAV:   4    -0.334714817630E+03    0.65578E-03   -0.11103E-02 24656   0.343E-01    0.247E-01
DAV:   5    -0.334714560406E+03    0.25722E-03   -0.45338E-03 21160   0.206E-01    0.204E-01
DAV:   6    -0.334714554055E+03    0.63510E-05   -0.45806E-03 21744   0.216E-01    0.164E-01
DAV:   7    -0.334714098284E+03    0.45577E-03   -0.29211E-03 21248   0.173E-01    0.627E-02
DAV:   8    -0.334714060913E+03    0.37371E-04   -0.66606E-04 16200   0.854E-02
  11 F= -.33471406E+03 E0= -.33471117E+03  d E =-.897915E-02
       N       E                     dE             d eps       ncg     rms          rms(c)
DAV:   1    -0.334714787975E+03   -0.68969E-03   -0.42497E-01 15840   0.220E+00    0.223E-01
DAV:   2    -0.334716802154E+03   -0.20142E-02   -0.26492E-02 23328   0.638E-01    0.175E-01
DAV:   3    -0.334716770769E+03    0.31385E-04   -0.61164E-03 21976   0.248E-01    0.142E-01
DAV:   4    -0.334716531900E+03    0.23887E-03   -0.19833E-03 19848   0.143E-01    0.798E-02
DAV:   5    -0.334716526081E+03    0.58186E-05   -0.78667E-04 15920   0.970E-02
  12 F= -.33471653E+03 E0= -.33471355E+03  d E =-.246517E-02
       N       E                     dE             d eps       ncg     rms          rms(c)
DAV:   1    -0.334715943368E+03    0.58853E-03   -0.25176E-01 15920   0.169E+00    0.179E-01
DAV:   2    -0.334717263265E+03   -0.13199E-02   -0.16862E-02 23568   0.517E-01    0.172E-01
DAV:   3    -0.334717061354E+03    0.20191E-03   -0.51207E-03 21256   0.213E-01    0.114E-01
DAV:   4    -0.334716919576E+03    0.14178E-03   -0.10356E-03 17376   0.112E-01    0.686E-02
DAV:   5    -0.334716922894E+03   -0.33181E-05   -0.75933E-04 15896   0.908E-02
  13 F= -.33471692E+03 E0= -.33471384E+03  d E =-.286198E-02
       N       E                     dE             d eps       ncg     rms          rms(c)
DAV:   1    -0.334717428247E+03   -0.50867E-03   -0.56015E-01 16144   0.275E+00    0.466E-01
DAV:   2    -0.334720337477E+03   -0.29092E-02   -0.55801E-02 22280   0.891E-01    0.353E-01
DAV:   3    -0.334719253368E+03    0.10841E-02   -0.24229E-02 23224   0.506E-01    0.254E-01
DAV:   4    -0.334718567640E+03    0.68573E-03   -0.86633E-03 22176   0.302E-01    0.158E-01
DAV:   5    -0.334718265573E+03    0.30207E-03   -0.53110E-03 22248   0.217E-01    0.992E-02
DAV:   6    -0.334718126081E+03    0.13949E-03   -0.16981E-03 19552   0.124E-01    0.501E-02
DAV:   7    -0.334718119341E+03    0.67396E-05   -0.48616E-04 13712   0.804E-02
  14 F= -.33471812E+03 E0= -.33471496E+03  d E =-.119645E-02
       N       E                     dE             d eps       ncg     rms          rms(c)
DAV:   1    -0.334718101850E+03    0.24231E-04   -0.21530E-03 17544   0.178E-01    0.336E-02
DAV:   2    -0.334718132353E+03   -0.30503E-04   -0.20111E-04 10568   0.698E-02
  15 F= -.33471813E+03 E0= -.33471497E+03  d E =-.120946E-02
       N       E                     dE             d eps       ncg     rms          rms(c)
DAV:   1    -0.334717787599E+03    0.31425E-03   -0.41308E-01 16240   0.219E+00    0.195E-01
DAV:   2    -0.334719949593E+03   -0.21620E-02   -0.26621E-02 20832   0.612E-01    0.150E-01
DAV:   3    -0.334719960931E+03   -0.11338E-04   -0.42119E-03 23352   0.229E-01    0.129E-01
DAV:   4    -0.334719813952E+03    0.14698E-03   -0.13294E-03 18448   0.118E-01    0.863E-02
DAV:   5    -0.334719824151E+03   -0.10199E-04   -0.98012E-04 16888   0.977E-02
  16 F= -.33471982E+03 E0= -.33471653E+03  d E =-.169180E-02
       N       E                     dE             d eps       ncg     rms          rms(c)
DAV:   1    -0.334702364801E+03    0.17449E-01   -0.36888E+00 16128   0.655E+00    0.595E-01
DAV:   2    -0.334722066459E+03   -0.19702E-01   -0.24368E-01 19952   0.186E+00    0.449E-01
DAV:   3    -0.334722526042E+03   -0.45958E-03   -0.44028E-02 23952   0.720E-01    0.386E-01
DAV:   4    -0.334720883130E+03    0.16429E-02   -0.13478E-02 22416   0.345E-01    0.219E-01
DAV:   5    -0.334721017081E+03   -0.13395E-03   -0.62642E-03 23248   0.262E-01    0.193E-01
DAV:   6    -0.334720473606E+03    0.54347E-03   -0.47902E-03 23016   0.230E-01    0.923E-02
DAV:   7    -0.334720375552E+03    0.98054E-04   -0.15624E-03 20480   0.127E-01    0.604E-02
DAV:   8    -0.334720344919E+03    0.30633E-04   -0.53743E-04 14592   0.742E-02
  17 F= -.33472034E+03 E0= -.33471689E+03  d E =-.221257E-02
       N       E                     dE             d eps       ncg     rms          rms(c)
DAV:   1    -0.334734477830E+03   -0.14102E-01   -0.99532E-01 20160   0.453E+00    0.130E+00
DAV:   2    -0.334735639941E+03   -0.11621E-02   -0.22658E-01 25544   0.201E+00    0.928E-01
DAV:   3    -0.334728811354E+03    0.68286E-02   -0.19431E-01 22320   0.131E+00    0.707E-01
DAV:   4    -0.334722489726E+03    0.63216E-02   -0.65543E-02 23648   0.794E-01    0.366E-01
DAV:   5    -0.334720823972E+03    0.16658E-02   -0.28565E-02 22520   0.542E-01    0.268E-01
DAV:   6    -0.334719834454E+03    0.98952E-03   -0.10468E-02 22840   0.312E-01    0.144E-01
DAV:   7    -0.334719949314E+03   -0.11486E-03   -0.30812E-03 21448   0.177E-01    0.120E-01
DAV:   8    -0.334719873531E+03    0.75783E-04   -0.15953E-03 19184   0.120E-01    0.821E-02
DAV:   9    -0.334719876527E+03   -0.29957E-05   -0.47987E-04 13864   0.724E-02
  18 F= -.33471988E+03 E0= -.33471656E+03  d E =0.468392E-03
       N       E                     dE             d eps       ncg     rms          rms(c)
DAV:   1    -0.334725611168E+03   -0.57376E-02   -0.26079E-01 20152   0.232E+00    0.668E-01
DAV:   2    -0.334726325854E+03   -0.71469E-03   -0.60904E-02 25720   0.102E+00    0.489E-01
DAV:   3    -0.334724438709E+03    0.18871E-02   -0.53375E-02 22392   0.695E-01    0.366E-01
DAV:   4    -0.334722753672E+03    0.16850E-02   -0.16496E-02 23752   0.395E-01    0.189E-01
DAV:   5    -0.334722309097E+03    0.44458E-03   -0.78648E-03 22184   0.283E-01    0.140E-01
DAV:   6    -0.334722010215E+03    0.29888E-03   -0.29525E-03 20904   0.168E-01    0.696E-02
DAV:   7    -0.334722023212E+03   -0.12996E-04   -0.84516E-04 17016   0.989E-02
  19 F= -.33472202E+03 E0= -.33471865E+03  d E =-.167829E-02
       N       E                     dE             d eps       ncg     rms          rms(c)
DAV:   1    -0.334721471542E+03    0.53867E-03   -0.38742E-01 15960   0.218E+00    0.220E-01
DAV:   2    -0.334723458501E+03   -0.19870E-02   -0.25988E-02 22912   0.642E-01    0.179E-01
DAV:   3    -0.334723355429E+03    0.10307E-03   -0.68343E-03 22352   0.258E-01    0.130E-01
DAV:   4    -0.334723154656E+03    0.20077E-03   -0.19633E-03 20016   0.143E-01    0.739E-02
DAV:   5    -0.334723169755E+03   -0.15100E-04   -0.10712E-03 17312   0.105E-01    0.701E-02
DAV:   6    -0.334723100129E+03    0.69626E-04   -0.52246E-04 14168   0.853E-02
  20 F= -.33472310E+03 E0= -.33471986E+03  d E =-.107692E-02
