<?xml version="1.0" encoding="ISO-8859-1"?>
<modeling>
 <generator>
  <i name="program" type="string">vasp </i>
  <i name="version" type="string">5.4.4.18Apr17-6-g9f103f2a35  </i>
  <i name="subversion" type="string">(build Aug 09 2018 16:20:53) complex            parallel </i>
  <i name="platform" type="string">LinuxIFC </i>
  <i name="date" type="string">2020 04 12 </i>
  <i name="time" type="string">16:19:51 </i>
 </generator>
 <incar>
  <i type="string" name="SYSTEM"> SQS with 1 vacancy for VFE and VRV</i>
  <i type="string" name="PREC">normal</i>
  <i type="int" name="IALGO">    38</i>
  <i type="int" name="ICHARG">     2</i>
  <i type="int" name="IBRION">     2</i>
  <i type="int" name="NSW">    20</i>
  <i type="int" name="ISIF">     3</i>
  <i type="int" name="ISYM">     0</i>
  <i name="ENCUT">    600.00000000</i>
  <i type="string" name="LREAL"> Auto</i>
  <i type="int" name="ISMEAR">     1</i>
  <i name="SIGMA">      0.20000000</i>
  <v type="int" name="KPOINT_BSE">    -1     0     0     0</v>
  <i type="string" name="GGA"> PS</i>
 </incar>
 <structure name="primitive_cell" >
  <crystal>
   <varray name="basis" >
    <v>      -3.19000000      -3.19000000      -3.19000000 </v>
    <v>       1.59500000       1.59500000      -7.97500000 </v>
    <v>       7.97500000      -7.97500000      -1.59500000 </v>
   </varray>
   <i name="volume">    486.92638500 </i>
   <varray name="rec_basis" >
    <v>      -0.13584117      -0.12539185      -0.05224660 </v>
    <v>       0.04179728       0.06269592      -0.10449321 </v>
    <v>       0.06269592      -0.06269592       0.00000000 </v>
   </varray>
  </crystal>
  <varray name="positions" >
   <v>      -0.03333333      -0.06666667       0.40000000 </v>
   <v>       0.30000000      -0.40000000       0.40000000 </v>
   <v>      -0.10000000      -0.20000000       0.20000000 </v>
   <v>       0.06666667       0.13333333       0.20000000 </v>
   <v>      -0.13333333      -0.26666667      -0.40000000 </v>
   <v>       0.03333333       0.06666667      -0.40000000 </v>
   <v>      -0.36666667       0.26666667       0.40000000 </v>
   <v>       0.40000000      -0.20000000       0.20000000 </v>
   <v>      -0.20000000      -0.40000000       0.40000000 </v>
   <v>      -0.43333333       0.13333333       0.20000000 </v>
   <v>       0.36666667      -0.26666667      -0.40000000 </v>
   <v>       0.13333333       0.26666667       0.40000000 </v>
   <v>      -0.46666667       0.06666667      -0.40000000 </v>
   <v>       0.23333333       0.46666667       0.20000000 </v>
   <v>       0.20000000       0.40000000      -0.40000000 </v>
   <v>       0.00000000       0.00000000       0.00000000 </v>
   <v>      -0.06666667      -0.13333333      -0.20000000 </v>
   <v>      -0.30000000       0.40000000      -0.40000000 </v>
   <v>      -0.26666667       0.46666667       0.20000000 </v>
   <v>       0.33333333      -0.33333333       0.00000000 </v>
   <v>       0.43333333      -0.13333333      -0.20000000 </v>
   <v>      -0.50000000       0.00000000       0.00000000 </v>
   <v>       0.26666667      -0.46666667      -0.20000000 </v>
   <v>      -0.33333333       0.33333333       0.00000000 </v>
   <v>      -0.40000000       0.20000000      -0.20000000 </v>
   <v>      -0.16666667      -0.33333333       0.00000000 </v>
   <v>      -0.23333333      -0.46666667      -0.20000000 </v>
   <v>       0.16666667       0.33333333       0.00000000 </v>
   <v>       0.10000000       0.20000000      -0.20000000 </v>
  </varray>
 </structure>
 <varray name="primitive_index" >
  <v type="int" >        1 </v>
  <v type="int" >       18 </v>
  <v type="int" >        7 </v>
  <v type="int" >       23 </v>
  <v type="int" >       19 </v>
  <v type="int" >        6 </v>
  <v type="int" >        2 </v>
  <v type="int" >       16 </v>
  <v type="int" >        8 </v>
  <v type="int" >       15 </v>
  <v type="int" >       11 </v>
  <v type="int" >       12 </v>
  <v type="int" >       27 </v>
  <v type="int" >       29 </v>
  <v type="int" >       22 </v>
  <v type="int" >        4 </v>
  <v type="int" >       14 </v>
  <v type="int" >       25 </v>
  <v type="int" >        9 </v>
  <v type="int" >       28 </v>
  <v type="int" >       17 </v>
  <v type="int" >        3 </v>
  <v type="int" >       21 </v>
  <v type="int" >       10 </v>
  <v type="int" >       26 </v>
  <v type="int" >       13 </v>
  <v type="int" >       24 </v>
  <v type="int" >       20 </v>
  <v type="int" >        5 </v>
 </varray>
 <kpoints>
  <generation param="Gamma">
   <v type="int" name="divisions">       5        5        5 </v>
   <v name="usershift">      0.00000000       0.00000000       0.00000000 </v>
   <v name="genvec1">      0.20000000      -0.00000000      -0.00000000 </v>
   <v name="genvec2">      0.00000000       0.20000000       0.00000000 </v>
   <v name="genvec3">      0.00000000       0.00000000       0.20000000 </v>
   <v name="shift">      0.00000000       0.00000000       0.00000000 </v>
  </generation>
  <varray name="kpointlist" >
   <v>       0.00000000       0.00000000       0.00000000 </v>
   <v>       0.20000000      -0.00000000       0.00000000 </v>
   <v>       0.40000000      -0.00000000       0.00000000 </v>
   <v>       0.00000000       0.20000000       0.00000000 </v>
   <v>       0.20000000       0.20000000      -0.00000000 </v>
   <v>       0.40000000       0.20000000      -0.00000000 </v>
   <v>      -0.40000000       0.20000000      -0.00000000 </v>
   <v>      -0.20000000       0.20000000       0.00000000 </v>
   <v>       0.00000000       0.40000000       0.00000000 </v>
   <v>       0.20000000       0.40000000       0.00000000 </v>
   <v>       0.40000000       0.40000000      -0.00000000 </v>
   <v>      -0.40000000       0.40000000       0.00000000 </v>
   <v>      -0.20000000       0.40000000       0.00000000 </v>
   <v>       0.00000000       0.00000000       0.20000000 </v>
   <v>       0.20000000      -0.00000000       0.20000000 </v>
   <v>       0.40000000       0.00000000       0.20000000 </v>
   <v>      -0.40000000       0.00000000       0.20000000 </v>
   <v>      -0.20000000       0.00000000       0.20000000 </v>
   <v>       0.00000000       0.20000000       0.20000000 </v>
   <v>       0.20000000       0.20000000       0.20000000 </v>
   <v>       0.40000000       0.20000000       0.20000000 </v>
   <v>      -0.40000000       0.20000000       0.20000000 </v>
   <v>      -0.20000000       0.20000000       0.20000000 </v>
   <v>       0.00000000       0.40000000       0.20000000 </v>
   <v>       0.20000000       0.40000000       0.20000000 </v>
   <v>       0.40000000       0.40000000       0.20000000 </v>
   <v>      -0.40000000       0.40000000       0.20000000 </v>
   <v>      -0.20000000       0.40000000       0.20000000 </v>
   <v>       0.00000000      -0.40000000       0.20000000 </v>
   <v>       0.20000000      -0.40000000       0.20000000 </v>
   <v>       0.40000000      -0.40000000       0.20000000 </v>
   <v>      -0.40000000      -0.40000000       0.20000000 </v>
   <v>      -0.20000000      -0.40000000       0.20000000 </v>
   <v>       0.00000000      -0.20000000       0.20000000 </v>
   <v>       0.20000000      -0.20000000       0.20000000 </v>
   <v>       0.40000000      -0.20000000       0.20000000 </v>
   <v>      -0.40000000      -0.20000000       0.20000000 </v>
   <v>      -0.20000000      -0.20000000       0.20000000 </v>
   <v>       0.00000000       0.00000000       0.40000000 </v>
   <v>       0.20000000      -0.00000000       0.40000000 </v>
   <v>       0.40000000      -0.00000000       0.40000000 </v>
   <v>      -0.40000000       0.00000000       0.40000000 </v>
   <v>      -0.20000000       0.00000000       0.40000000 </v>
   <v>      -0.00000000       0.20000000       0.40000000 </v>
   <v>       0.20000000       0.20000000       0.40000000 </v>
   <v>       0.40000000       0.20000000       0.40000000 </v>
   <v>      -0.40000000       0.20000000       0.40000000 </v>
   <v>      -0.20000000       0.20000000       0.40000000 </v>
   <v>       0.00000000       0.40000000       0.40000000 </v>
   <v>       0.20000000       0.40000000       0.40000000 </v>
   <v>       0.40000000       0.40000000       0.40000000 </v>
   <v>      -0.40000000       0.40000000       0.40000000 </v>
   <v>      -0.20000000       0.40000000       0.40000000 </v>
   <v>       0.00000000      -0.40000000       0.40000000 </v>
   <v>       0.20000000      -0.40000000       0.40000000 </v>
   <v>       0.40000000      -0.40000000       0.40000000 </v>
   <v>      -0.40000000      -0.40000000       0.40000000 </v>
   <v>      -0.20000000      -0.40000000       0.40000000 </v>
   <v>       0.00000000      -0.20000000       0.40000000 </v>
   <v>       0.20000000      -0.20000000       0.40000000 </v>
   <v>       0.40000000      -0.20000000       0.40000000 </v>
   <v>      -0.40000000      -0.20000000       0.40000000 </v>
   <v>      -0.20000000      -0.20000000       0.40000000 </v>
  </varray>
  <varray name="weights" >
   <v>       0.00800000 </v>
   <v>       0.01600000 </v>
   <v>       0.01600000 </v>
   <v>       0.01600000 </v>
   <v>       0.01600000 </v>
   <v>       0.01600000 </v>
   <v>       0.01600000 </v>
   <v>       0.01600000 </v>
   <v>       0.01600000 </v>
   <v>       0.01600000 </v>
   <v>       0.01600000 </v>
   <v>       0.01600000 </v>
   <v>       0.01600000 </v>
   <v>       0.01600000 </v>
   <v>       0.01600000 </v>
   <v>       0.01600000 </v>
   <v>       0.01600000 </v>
   <v>       0.01600000 </v>
   <v>       0.01600000 </v>
   <v>       0.01600000 </v>
   <v>       0.01600000 </v>
   <v>       0.01600000 </v>
   <v>       0.01600000 </v>
   <v>       0.01600000 </v>
   <v>       0.01600000 </v>
   <v>       0.01600000 </v>
   <v>       0.01600000 </v>
   <v>       0.01600000 </v>
   <v>       0.01600000 </v>
   <v>       0.01600000 </v>
   <v>       0.01600000 </v>
   <v>       0.01600000 </v>
   <v>       0.01600000 </v>
   <v>       0.01600000 </v>
   <v>       0.01600000 </v>
   <v>       0.01600000 </v>
   <v>       0.01600000 </v>
   <v>       0.01600000 </v>
   <v>       0.01600000 </v>
   <v>       0.01600000 </v>
   <v>       0.01600000 </v>
   <v>       0.01600000 </v>
   <v>       0.01600000 </v>
   <v>       0.01600000 </v>
   <v>       0.01600000 </v>
   <v>       0.01600000 </v>
   <v>       0.01600000 </v>
   <v>       0.01600000 </v>
   <v>       0.01600000 </v>
   <v>       0.01600000 </v>
   <v>       0.01600000 </v>
   <v>       0.01600000 </v>
   <v>       0.01600000 </v>
   <v>       0.01600000 </v>
   <v>       0.01600000 </v>
   <v>       0.01600000 </v>
   <v>       0.01600000 </v>
   <v>       0.01600000 </v>
   <v>       0.01600000 </v>
   <v>       0.01600000 </v>
   <v>       0.01600000 </v>
   <v>       0.01600000 </v>
   <v>       0.01600000 </v>
  </varray>
 </kpoints>
 <parameters>
  <separator name="general" >
   <i type="string" name="SYSTEM">SQS with 1 vacancy for VFE and VRV</i>
   <i type="logical" name="LCOMPAT"> F  </i>
  </separator>
  <separator name="electronic" >
   <i type="string" name="PREC">normal</i>
   <i name="ENMAX">    600.00000000</i>
   <i name="ENAUG">    455.65900000</i>
   <i name="EDIFF">      0.00010000</i>
   <i type="int" name="IALGO">    38</i>
   <i type="int" name="IWAVPR">    11</i>
   <i type="int" name="NBANDS">   120</i>
   <i name="NELECT">    200.00000000</i>
   <i type="int" name="TURBO">     0</i>
   <i type="int" name="IRESTART">     0</i>
   <i type="int" name="NREBOOT">     0</i>
   <i type="int" name="NMIN">     0</i>
   <i name="EREF">      0.00000000</i>
   <separator name="electronic smearing" >
    <i type="int" name="ISMEAR">     1</i>
    <i name="SIGMA">      0.20000000</i>
    <i name="KSPACING">      0.50000000</i>
    <i type="logical" name="KGAMMA"> T  </i>
   </separator>
   <separator name="electronic projectors" >
    <i type="logical" name="LREAL"> T  </i>
    <v name="ROPT">     -0.00050000     -0.00050000     -0.00050000     -0.00050000     -0.00050000</v>
    <i type="int" name="LMAXPAW">  -100</i>
    <i type="int" name="LMAXMIX">     2</i>
    <i type="logical" name="NLSPLINE"> F  </i>
   </separator>
   <separator name="electronic startup" >
    <i type="int" name="ISTART">     0</i>
    <i type="int" name="ICHARG">     2</i>
    <i type="int" name="INIWAV">     1</i>
   </separator>
   <separator name="electronic spin" >
    <i type="int" name="ISPIN">     1</i>
    <i type="logical" name="LNONCOLLINEAR"> F  </i>
    <v name="MAGMOM">      1.00000000      1.00000000      1.00000000      1.00000000      1.00000000      1.00000000      1.00000000      1.00000000      1.00000000      1.00000000      1.00000000      1.00000000      1.00000000      1.00000000      1.00000000      1.00000000      1.00000000      1.00000000      1.00000000      1.00000000
      1.00000000      1.00000000      1.00000000      1.00000000      1.00000000      1.00000000      1.00000000      1.00000000      1.00000000</v>
    <i name="NUPDOWN">     -1.00000000</i>
    <i type="logical" name="LSORBIT"> F  </i>
    <v name="SAXIS">      0.00000000      0.00000000      1.00000000</v>
    <i type="logical" name="LSPIRAL"> F  </i>
    <v name="QSPIRAL">      0.00000000      0.00000000      0.00000000</v>
    <i type="logical" name="LZEROZ"> F  </i>
   </separator>
   <separator name="electronic exchange-correlation" >
    <i type="logical" name="LASPH"> F  </i>
    <i type="logical" name="LMETAGGA"> F  </i>
   </separator>
   <separator name="electronic convergence" >
    <i type="int" name="NELM">    60</i>
    <i type="int" name="NELMDL">    -5</i>
    <i type="int" name="NELMIN">     2</i>
    <i name="ENINI">    600.00000000</i>
    <separator name="electronic convergence detail" >
     <i type="logical" name="LDIAG"> T  </i>
     <i type="logical" name="LSUBROT"> F  </i>
     <i name="WEIMIN">      0.00100000</i>
     <i name="EBREAK">      0.00000021</i>
     <i name="DEPER">      0.30000000</i>
     <i type="int" name="NRMM">     4</i>
     <i name="TIME">      0.40000000</i>
    </separator>
   </separator>
   <separator name="electronic mixer" >
    <i name="AMIX">      0.40000000</i>
    <i name="BMIX">      1.00000000</i>
    <i name="AMIN">      0.10000000</i>
    <i name="AMIX_MAG">      1.60000000</i>
    <i name="BMIX_MAG">      1.00000000</i>
    <separator name="electronic mixer details" >
     <i type="int" name="IMIX">     4</i>
     <i type="logical" name="MIXFIRST"> F  </i>
     <i type="int" name="MAXMIX">   -45</i>
     <i name="WC">    100.00000000</i>
     <i type="int" name="INIMIX">     1</i>
     <i type="int" name="MIXPRE">     1</i>
     <i type="int" name="MREMOVE">     5</i>
    </separator>
   </separator>
   <separator name="electronic dipolcorrection" >
    <i type="logical" name="LDIPOL"> F  </i>
    <i type="logical" name="LMONO"> F  </i>
    <i type="int" name="IDIPOL">     0</i>
    <i name="EPSILON">      1.00000000</i>
    <v name="DIPOL">   -100.00000000   -100.00000000   -100.00000000</v>
    <i name="EFIELD">      0.00000000</i>
   </separator>
  </separator>
  <separator name="grids" >
   <i type="int" name="NGX">    36</i>
   <i type="int" name="NGY">    50</i>
   <i type="int" name="NGZ">    70</i>
   <i type="int" name="NGXF">    72</i>
   <i type="int" name="NGYF">   100</i>
   <i type="int" name="NGZF">   140</i>
   <i type="logical" name="ADDGRID"> F  </i>
  </separator>
  <separator name="ionic" >
   <i type="int" name="NSW">    20</i>
   <i type="int" name="IBRION">     2</i>
   <i type="int" name="MDALGO">     0</i>
   <i type="int" name="ISIF">     3</i>
   <i name="PSTRESS">      0.00000000</i>
   <i name="EDIFFG">      0.00100000</i>
   <i type="int" name="NFREE">     1</i>
   <i name="POTIM">      0.50000000</i>
   <i name="SMASS">     -3.00000000</i>
   <i name="SCALEE">      1.00000000</i>
  </separator>
  <separator name="ionic md" >
   <i name="TEBEG">      0.00010000</i>
   <i name="TEEND">      0.00010000</i>
   <i type="int" name="NBLOCK">     1</i>
   <i type="int" name="KBLOCK">    20</i>
   <i type="int" name="NPACO">   256</i>
   <i name="APACO">     16.00000000</i>
  </separator>
  <separator name="symmetry" >
   <i type="int" name="ISYM">     0</i>
   <i name="SYMPREC">      0.00001000</i>
  </separator>
  <separator name="dos" >
   <i type="int" name="LORBIT">     0</i>
   <v name="RWIGS">     -1.00000000     -1.00000000     -1.00000000     -1.00000000     -1.00000000</v>
   <i type="int" name="NEDOS">   301</i>
   <i name="EMIN">     10.00000000</i>
   <i name="EMAX">    -10.00000000</i>
   <i name="EFERMI">      0.00000000</i>
  </separator>
  <separator name="writing" >
   <i type="int" name="NWRITE">     2</i>
   <i type="logical" name="LWAVE"> T  </i>
   <i type="logical" name="LDOWNSAMPLE"> F  </i>
   <i type="logical" name="LCHARG"> T  </i>
   <i type="logical" name="LPARD"> F  </i>
   <i type="logical" name="LVTOT"> F  </i>
   <i type="logical" name="LVHAR"> F  </i>
   <i type="logical" name="LELF"> F  </i>
   <i type="logical" name="LOPTICS"> F  </i>
   <v name="STM">      0.00000000      0.00000000      0.00000000      0.00000000      0.00000000      0.00000000      0.00000000</v>
  </separator>
  <separator name="performance" >
   <i type="int" name="NPAR">     8</i>
   <i type="int" name="NSIM">     4</i>
   <i type="int" name="NBLK">    -1</i>
   <i type="logical" name="LPLANE"> T  </i>
   <i type="logical" name="LSCALAPACK"> T  </i>
   <i type="logical" name="LSCAAWARE"> F  </i>
   <i type="logical" name="LSCALU"> F  </i>
   <i type="logical" name="LASYNC"> F  </i>
   <i type="logical" name="LORBITALREAL"> F  </i>
  </separator>
  <separator name="miscellaneous" >
   <i type="int" name="IDIOT">     3</i>
   <i type="int" name="ISPECIAL">     0</i>
   <i type="logical" name="LMUSIC"> F  </i>
   <v name="POMASS">     92.91000000     95.94000000    180.94800000     47.88000000    183.85000000</v>
   <v name="DARWINR">      0.00000000      0.00000000      0.00000000      0.00000000      0.00000000</v>
   <v name="DARWINV">      1.00000000      1.00000000      1.00000000      1.00000000      1.00000000</v>
   <i type="logical" name="LCORR"> T  </i>
  </separator>
  <i type="logical" name="GGA_COMPAT"> T  </i>
  <i type="logical" name="LBERRY"> F  </i>
  <i type="int" name="ICORELEVEL">     0</i>
  <i type="logical" name="LDAU"> F  </i>
  <i type="int" name="I_CONSTRAINED_M">     0</i>
  <separator name="electronic exchange-correlation" >
   <i type="string" name="GGA">PS</i>
   <i type="int" name="VOSKOWN">     0</i>
   <i type="logical" name="LHFCALC"> F  </i>
   <i type="string" name="PRECFOCK"></i>
   <i type="logical" name="LSYMGRAD"> F  </i>
   <i type="logical" name="LHFONE"> F  </i>
   <i type="logical" name="LRHFCALC"> F  </i>
   <i type="logical" name="LTHOMAS"> F  </i>
   <i type="logical" name="LMODELHF"> F  </i>
   <i name="ENCUT4O">     -1.00000000</i>
   <i type="int" name="EXXOEP">     0</i>
   <i type="int" name="FOURORBIT">     0</i>
   <i name="AEXX">      0.00000000</i>
   <i name="HFALPHA">      0.00000000</i>
   <i name="MCALPHA">      0.00000000</i>
   <i name="ALDAX">      1.00000000</i>
   <i name="AGGAX">      1.00000000</i>
   <i name="ALDAC">      1.00000000</i>
   <i name="AGGAC">      1.00000000</i>
   <i type="int" name="NKREDX">     1</i>
   <i type="int" name="NKREDY">     1</i>
   <i type="int" name="NKREDZ">     1</i>
   <i type="logical" name="SHIFTRED"> F  </i>
   <i type="logical" name="ODDONLY"> F  </i>
   <i type="logical" name="EVENONLY"> F  </i>
   <i type="int" name="LMAXFOCK">     0</i>
   <i type="int" name="NMAXFOCKAE">     0</i>
   <i type="logical" name="LFOCKAEDFT"> F  </i>
   <i name="HFSCREEN">      0.00000000</i>
   <i name="HFSCREENC">      0.00000000</i>
   <i type="int" name="NBANDSGWLOW">     0</i>
  </separator>
  <separator name="vdW DFT" >
   <i type="logical" name="LUSE_VDW"> F  </i>
   <i name="Zab_VDW">     -0.84910000</i>
   <i name="PARAM1">      0.12340000</i>
   <i name="PARAM2">      1.00000000</i>
   <i name="PARAM3">      0.00000000</i>
  </separator>
  <separator name="model GW" >
   <i type="int" name="MODEL_GW">     0</i>
   <i name="MODEL_EPS0">     10.07433900</i>
   <i name="MODEL_ALPHA">      1.00000000</i>
  </separator>
  <separator name="linear response parameters" >
   <i type="logical" name="LEPSILON"> F  </i>
   <i type="logical" name="LRPA"> F  </i>
   <i type="logical" name="LNABLA"> F  </i>
   <i type="logical" name="LVEL"> F  </i>
   <i type="int" name="KINTER">     0</i>
   <i name="CSHIFT">      0.10000000</i>
   <i name="OMEGAMAX">     -1.00000000</i>
   <i name="DEG_THRESHOLD">      0.00200000</i>
   <i name="RTIME">     -0.10000000</i>
   <i name="WPLASMAI">      0.00000000</i>
   <v name="DFIELD">      0.00000000      0.00000000      0.00000000</v>
   <v name="WPLASMA">      0.00000000      0.00000000      0.00000000      0.00000000      0.00000000      0.00000000      0.00000000      0.00000000      0.00000000</v>
  </separator>
  <separator name="orbital magnetization" >
   <i type="logical" name="NUCIND"> F  </i>
   <v name="MAGPOS">      0.00000000      0.00000000      0.00000000</v>
   <i type="logical" name="LNICSALL"> T  </i>
   <i type="logical" name="ORBITALMAG"> F  </i>
   <i type="logical" name="LMAGBLOCH"> F  </i>
   <i type="logical" name="LCHIMAG"> F  </i>
   <i type="logical" name="LGAUGE"> T  </i>
   <i type="int" name="MAGATOM">     0</i>
   <v name="MAGDIPOL">      0.00000000      0.00000000      0.00000000</v>
   <v name="AVECCONST">      0.00000000      0.00000000      0.00000000</v>
  </separator>
  <separator name="response functions" >
   <i type="logical" name="LADDER"> F  </i>
   <i type="logical" name="LRPAFORCE"> F  </i>
   <i type="logical" name="LFXC"> F  </i>
   <i type="logical" name="LHARTREE"> T  </i>
   <i type="int" name="IBSE">     0</i>
   <v type="int" name="KPOINT">    -1     0     0     0</v>
   <i type="logical" name="LTCTE"> F  </i>
   <i type="logical" name="LTETE"> F  </i>
   <i type="logical" name="LTRIPLET"> F  </i>
   <i type="logical" name="LFXCEPS"> F  </i>
   <i type="logical" name="LFXHEG"> F  </i>
   <i type="int" name="NATURALO">     2</i>
   <i type="logical" name="L2ORDER"> F  </i>
   <i type="logical" name="LMP2LT"> F  </i>
   <i type="logical" name="LUSEW"> F  </i>
   <i name="ENCUTGW">     -2.00000000</i>
   <i name="ENCUTGWSOFT">     -2.00000000</i>
   <i name="ENCUTLF">     -1.00000000</i>
   <i type="int" name="LMAXMP2">    -1</i>
   <i name="SCISSOR">      0.00000000</i>
   <i type="int" name="NOMEGA">     0</i>
   <i type="int" name="NOMEGAR">     0</i>
   <i type="int" name="NBANDSGW">    -1</i>
   <i type="int" name="NBANDSO">    -1</i>
   <i type="int" name="NBANDSV">    -1</i>
   <i type="int" name="NELM">     1</i>
   <i type="int" name="NELMHF">     1</i>
   <i type="int" name="DIM">     3</i>
   <i type="int" name="ANTIRES">     0</i>
   <i name="OMEGAMAX">    -30.00000000</i>
   <i name="OMEGAMIN">    -30.00000000</i>
   <i name="OMEGATL">   -200.00000000</i>
   <i type="int" name="OMEGAGRID">   140</i>
   <i name="CSHIFT">     -0.10000000</i>
   <i type="logical" name="SELFENERGY"> F  </i>
   <i type="logical" name="LSPECTRAL"> F  </i>
   <i type="logical" name="LSPECTRALGW"> F  </i>
   <i type="logical" name="LSINGLES"> F  </i>
   <i type="logical" name="LFERMIGW"> F  </i>
   <i type="logical" name="ODDONLYGW"> F  </i>
   <i type="logical" name="EVENONLYGW"> F  </i>
   <i type="int" name="NKREDLFX">     1</i>
   <i type="int" name="NKREDLFY">     1</i>
   <i type="int" name="NKREDLFZ">     1</i>
   <i type="int" name="MAXMEM">  2800</i>
   <i type="int" name="TELESCOPE">     0</i>
   <i type="int" name="TAUPAR">     1</i>
   <i type="int" name="OMEGAPAR">    -1</i>
   <i name="LAMBDA">      1.00000000</i>
  </separator>
  <separator name="External order field" >
   <i name="OFIELD_KAPPA">      0.00000000</i>
   <v name="OFIELD_K">      0.00000000      0.00000000      0.00000000</v>
   <i name="OFIELD_Q6_NEAR">      0.00000000</i>
   <i name="OFIELD_Q6_FAR">      0.00000000</i>
   <i name="OFIELD_A">      0.00000000</i>
  </separator>
  <separator name="solvation model" >
   <i type="logical" name="LSOL"> F  </i>
  </separator>
 </parameters>
 <atominfo>
  <atoms>      29 </atoms>
  <types>       5 </types>
  <array name="atoms" >
   <dimension dim="1">ion</dimension>
   <field type="string">element</field>
   <field type="int">atomtype</field>
   <set>
    <rc><c>Nb</c><c>   1</c></rc>
    <rc><c>Nb</c><c>   1</c></rc>
    <rc><c>Nb</c><c>   1</c></rc>
    <rc><c>Nb</c><c>   1</c></rc>
    <rc><c>Nb</c><c>   1</c></rc>
    <rc><c>Nb</c><c>   1</c></rc>
    <rc><c>Mo</c><c>   2</c></rc>
    <rc><c>Mo</c><c>   2</c></rc>
    <rc><c>Mo</c><c>   2</c></rc>
    <rc><c>Mo</c><c>   2</c></rc>
    <rc><c>Mo</c><c>   2</c></rc>
    <rc><c>Mo</c><c>   2</c></rc>
    <rc><c>Ta</c><c>   3</c></rc>
    <rc><c>Ta</c><c>   3</c></rc>
    <rc><c>Ta</c><c>   3</c></rc>
    <rc><c>Ta</c><c>   3</c></rc>
    <rc><c>Ta</c><c>   3</c></rc>
    <rc><c>Ta</c><c>   3</c></rc>
    <rc><c>Ti</c><c>   4</c></rc>
    <rc><c>Ti</c><c>   4</c></rc>
    <rc><c>Ti</c><c>   4</c></rc>
    <rc><c>Ti</c><c>   4</c></rc>
    <rc><c>Ti</c><c>   4</c></rc>
    <rc><c>W </c><c>   5</c></rc>
    <rc><c>W </c><c>   5</c></rc>
    <rc><c>W </c><c>   5</c></rc>
    <rc><c>W </c><c>   5</c></rc>
    <rc><c>W </c><c>   5</c></rc>
    <rc><c>W </c><c>   5</c></rc>
   </set>
  </array>
  <array name="atomtypes" >
   <dimension dim="1">type</dimension>
   <field type="int">atomspertype</field>
   <field type="string">element</field>
   <field>mass</field>
   <field>valence</field>
   <field type="string">pseudopotential</field>
   <set>
    <rc><c>   6</c><c>Nb</c><c>     92.91000000</c><c>     13.00000000</c><c>  PAW_PBE Nb_sv 25May2007               </c></rc>
    <rc><c>   6</c><c>Mo</c><c>     95.94000000</c><c>      6.00000000</c><c>  PAW_PBE Mo 08Apr2002                  </c></rc>
    <rc><c>   6</c><c>Ta</c><c>    180.94800000</c><c>      5.00000000</c><c>  PAW_PBE Ta 17Jan2003                  </c></rc>
    <rc><c>   5</c><c>Ti</c><c>     47.88000000</c><c>      4.00000000</c><c>  PAW_PBE Ti 08Apr2002                  </c></rc>
    <rc><c>   6</c><c>W </c><c>    183.85000000</c><c>      6.00000000</c><c>  PAW_PBE W 08Apr2002                   </c></rc>
   </set>
  </array>
 </atominfo>
 <structure name="initialpos" >
  <crystal>
   <varray name="basis" >
    <v>      -3.19000000      -3.19000000      -3.19000000 </v>
    <v>       1.59500000       1.59500000      -7.97500000 </v>
    <v>       7.97500000      -7.97500000      -1.59500000 </v>
   </varray>
   <i name="volume">    486.92638500 </i>
   <varray name="rec_basis" >
    <v>      -0.13584117      -0.12539185      -0.05224660 </v>
    <v>       0.04179728       0.06269592      -0.10449321 </v>
    <v>       0.06269592      -0.06269592       0.00000000 </v>
   </varray>
  </crystal>
  <varray name="positions" >
   <v>       0.96666667       0.93333333       0.40000000 </v>
   <v>       0.63333333       0.26666667       0.40000000 </v>
   <v>       0.50000000       0.00000000       0.00000000 </v>
   <v>       0.00000000       0.00000000       0.00000000 </v>
   <v>       0.10000000       0.20000000       0.80000000 </v>
   <v>       0.03333333       0.06666667       0.60000000 </v>
   <v>       0.90000000       0.80000000       0.20000000 </v>
   <v>       0.80000000       0.60000000       0.40000000 </v>
   <v>       0.73333333       0.46666667       0.20000000 </v>
   <v>       0.66666667       0.33333333       0.00000000 </v>
   <v>       0.36666667       0.73333333       0.60000000 </v>
   <v>       0.13333333       0.26666667       0.40000000 </v>
   <v>       0.83333333       0.66666667       0.00000000 </v>
   <v>       0.93333333       0.86666667       0.80000000 </v>
   <v>       0.56666667       0.13333333       0.20000000 </v>
   <v>       0.40000000       0.80000000       0.20000000 </v>
   <v>       0.43333333       0.86666667       0.80000000 </v>
   <v>       0.30000000       0.60000000       0.40000000 </v>
   <v>       0.86666667       0.73333333       0.60000000 </v>
   <v>       0.16666667       0.33333333       0.00000000 </v>
   <v>       0.26666667       0.53333333       0.80000000 </v>
   <v>       0.20000000       0.40000000       0.60000000 </v>
   <v>       0.06666667       0.13333333       0.20000000 </v>
   <v>       0.76666667       0.53333333       0.80000000 </v>
   <v>       0.70000000       0.40000000       0.60000000 </v>
   <v>       0.60000000       0.20000000       0.80000000 </v>
   <v>       0.53333333       0.06666667       0.60000000 </v>
   <v>       0.33333333       0.66666667       0.00000000 </v>
   <v>       0.23333333       0.46666667       0.20000000 </v>
  </varray>
 </structure>
 <calculation>
  <scstep>
   <time name="dav">   18.45   18.49</time>
   <time name="total">   18.49   18.53</time>
   <energy>
    <i name="alphaZ">   1318.14636210 </i>
    <i name="ewald"> -11745.31320419 </i>
    <i name="hartreedc">  -3105.72117231 </i>
    <i name="XCdc">   -868.24774548 </i>
    <i name="pawpsdc">  12179.31920212 </i>
    <i name="pawaedc"> -10655.17440453 </i>
    <i name="eentropy">     -0.00557120 </i>
    <i name="bandstr">   1863.36279712 </i>
    <i name="atom">  13116.42875384 </i>
    <i name="e_fr_energy">   2102.79501748 </i>
    <i name="e_wo_entrp">   2102.80058868 </i>
    <i name="e_0_energy">   2102.79687455 </i>
   </energy>
  </scstep>
  <scstep>
   <time name="dav">   18.33   18.36</time>
   <time name="total">   18.34   18.36</time>
   <energy>
    <i name="e_fr_energy">     52.29169145 </i>
    <i name="e_wo_entrp">     52.29178068 </i>
    <i name="e_0_energy">     52.29172119 </i>
   </energy>
  </scstep>
  <scstep>
   <time name="dav">   28.83   28.87</time>
   <time name="total">   28.83   28.88</time>
   <energy>
    <i name="e_fr_energy">   -306.40551837 </i>
    <i name="e_wo_entrp">   -306.40764812 </i>
    <i name="e_0_energy">   -306.40622828 </i>
   </energy>
  </scstep>
  <scstep>
   <time name="dav">   26.05   26.09</time>
   <time name="total">   26.06   26.09</time>
   <energy>
    <i name="e_fr_energy">   -350.53261875 </i>
    <i name="e_wo_entrp">   -350.52338899 </i>
    <i name="e_0_energy">   -350.52954216 </i>
   </energy>
  </scstep>
  <scstep>
   <time name="dav">   31.26   31.30</time>
   <time name="total">   31.86   31.91</time>
   <energy>
    <i name="e_fr_energy">   -355.50301639 </i>
    <i name="e_wo_entrp">   -355.49601851 </i>
    <i name="e_0_energy">   -355.50068376 </i>
   </energy>
  </scstep>
  <scstep>
   <time name="dav">   24.56   24.61</time>
   <time name="total">   25.20   25.26</time>
   <energy>
    <i name="e_fr_energy">   -345.96714712 </i>
    <i name="e_wo_entrp">   -345.95472559 </i>
    <i name="e_0_energy">   -345.96300661 </i>
   </energy>
  </scstep>
  <scstep>
   <time name="dav">   24.33   24.39</time>
   <time name="total">   24.96   25.02</time>
   <energy>
    <i name="e_fr_energy">   -357.85560299 </i>
    <i name="e_wo_entrp">   -357.86011524 </i>
    <i name="e_0_energy">   -357.85710707 </i>
   </energy>
  </scstep>
  <scstep>
   <time name="dav">   24.66   24.72</time>
   <time name="total">   25.30   25.36</time>
   <energy>
    <i name="e_fr_energy">   -339.67134981 </i>
    <i name="e_wo_entrp">   -339.67885317 </i>
    <i name="e_0_energy">   -339.67385093 </i>
   </energy>
  </scstep>
  <scstep>
   <time name="dav">   25.63   25.67</time>
   <time name="total">   26.26   26.31</time>
   <energy>
    <i name="e_fr_energy">   -335.43033150 </i>
    <i name="e_wo_entrp">   -335.41226387 </i>
    <i name="e_0_energy">   -335.42430895 </i>
   </energy>
  </scstep>
  <scstep>
   <time name="dav">   25.48   25.52</time>
   <time name="total">   26.11   26.15</time>
   <energy>
    <i name="e_fr_energy">   -334.46096058 </i>
    <i name="e_wo_entrp">   -334.45387411 </i>
    <i name="e_0_energy">   -334.45859842 </i>
   </energy>
  </scstep>
  <scstep>
   <time name="dav">   24.94   24.98</time>
   <time name="total">   25.57   25.61</time>
   <energy>
    <i name="e_fr_energy">   -334.22949462 </i>
    <i name="e_wo_entrp">   -334.21353789 </i>
    <i name="e_0_energy">   -334.22417571 </i>
   </energy>
  </scstep>
  <scstep>
   <time name="dav">   25.73   25.77</time>
   <time name="total">   26.36   26.40</time>
   <energy>
    <i name="e_fr_energy">   -334.22738966 </i>
    <i name="e_wo_entrp">   -334.20770211 </i>
    <i name="e_0_energy">   -334.22082714 </i>
   </energy>
  </scstep>
  <scstep>
   <time name="dav">   25.64   25.68</time>
   <time name="total">   26.27   26.31</time>
   <energy>
    <i name="e_fr_energy">   -334.20107823 </i>
    <i name="e_wo_entrp">   -334.18499497 </i>
    <i name="e_0_energy">   -334.19571714 </i>
   </energy>
  </scstep>
  <scstep>
   <time name="dav">   24.95   24.99</time>
   <time name="total">   25.58   25.62</time>
   <energy>
    <i name="e_fr_energy">   -334.15996949 </i>
    <i name="e_wo_entrp">   -334.14207811 </i>
    <i name="e_0_energy">   -334.15400570 </i>
   </energy>
  </scstep>
  <scstep>
   <time name="dav">   25.68   25.71</time>
   <time name="total">   26.31   26.34</time>
   <energy>
    <i name="e_fr_energy">   -334.15597484 </i>
    <i name="e_wo_entrp">   -334.13776124 </i>
    <i name="e_0_energy">   -334.14990364 </i>
   </energy>
  </scstep>
  <scstep>
   <time name="dav">   24.88   24.91</time>
   <time name="total">   25.51   25.54</time>
   <energy>
    <i name="e_fr_energy">   -334.15459674 </i>
    <i name="e_wo_entrp">   -334.13632127 </i>
    <i name="e_0_energy">   -334.14850492 </i>
   </energy>
  </scstep>
  <scstep>
   <time name="dav">   23.36   23.39</time>
   <time name="total">   23.99   24.02</time>
   <energy>
    <i name="e_fr_energy">   -334.15300779 </i>
    <i name="e_wo_entrp">   -334.13496615 </i>
    <i name="e_0_energy">   -334.14699391 </i>
   </energy>
  </scstep>
  <scstep>
   <time name="dav">   23.63   23.66</time>
   <time name="total">   24.28   24.31</time>
   <energy>
    <i name="e_fr_energy">   -334.15298934 </i>
    <i name="e_wo_entrp">   -334.13487941 </i>
    <i name="e_0_energy">   -334.14695269 </i>
   </energy>
  </scstep>
  <scstep>
   <time name="dav">   22.66   22.69</time>
   <time name="total">   23.30   23.33</time>
   <energy>
    <i name="e_fr_energy">   -334.15282944 </i>
    <i name="e_wo_entrp">   -334.13482799 </i>
    <i name="e_0_energy">   -334.14682895 </i>
   </energy>
  </scstep>
  <scstep>
   <time name="dav">   18.82   18.87</time>
   <time name="total">   18.85   18.91</time>
   <energy>
    <i name="alphaZ">   1318.14636210 </i>
    <i name="ewald"> -11745.31320419 </i>
    <i name="hartreedc">  -2959.90917094 </i>
    <i name="XCdc">   -862.49721468 </i>
    <i name="pawpsdc">  21075.21922307 </i>
    <i name="pawaedc"> -19552.81319073 </i>
    <i name="eentropy">     -0.01806573 </i>
    <i name="bandstr">   -723.39629016 </i>
    <i name="atom">  13116.42875384 </i>
    <i name="e_fr_energy">   -334.15279741 </i>
    <i name="e_wo_entrp">   -334.13473168 </i>
    <i name="e_0_energy">   -334.14677550 </i>
   </energy>
  </scstep>
  <structure>
   <crystal>
    <varray name="basis" >
     <v>      -3.19000000      -3.19000000      -3.19000000 </v>
     <v>       1.59500000       1.59500000      -7.97500000 </v>
     <v>       7.97500000      -7.97500000      -1.59500000 </v>
    </varray>
    <i name="volume">    486.92638500 </i>
    <varray name="rec_basis" >
     <v>      -0.13584117      -0.12539185      -0.05224660 </v>
     <v>       0.04179728       0.06269592      -0.10449321 </v>
     <v>       0.06269592      -0.06269592       0.00000000 </v>
    </varray>
   </crystal>
   <varray name="positions" >
    <v>       0.96666667       0.93333333       0.40000000 </v>
    <v>       0.63333333       0.26666667       0.40000000 </v>
    <v>       0.50000000       0.00000000       0.00000000 </v>
    <v>       0.00000000       0.00000000       0.00000000 </v>
    <v>       0.10000000       0.20000000       0.80000000 </v>
    <v>       0.03333333       0.06666667       0.60000000 </v>
    <v>       0.90000000       0.80000000       0.20000000 </v>
    <v>       0.80000000       0.60000000       0.40000000 </v>
    <v>       0.73333333       0.46666667       0.20000000 </v>
    <v>       0.66666667       0.33333333       0.00000000 </v>
    <v>       0.36666667       0.73333333       0.60000000 </v>
    <v>       0.13333333       0.26666667       0.40000000 </v>
    <v>       0.83333333       0.66666667       0.00000000 </v>
    <v>       0.93333333       0.86666667       0.80000000 </v>
    <v>       0.56666667       0.13333333       0.20000000 </v>
    <v>       0.40000000       0.80000000       0.20000000 </v>
    <v>       0.43333333       0.86666667       0.80000000 </v>
    <v>       0.30000000       0.60000000       0.40000000 </v>
    <v>       0.86666667       0.73333333       0.60000000 </v>
    <v>       0.16666667       0.33333333       0.00000000 </v>
    <v>       0.26666667       0.53333333       0.80000000 </v>
    <v>       0.20000000       0.40000000       0.60000000 </v>
    <v>       0.06666667       0.13333333       0.20000000 </v>
    <v>       0.76666667       0.53333333       0.80000000 </v>
    <v>       0.70000000       0.40000000       0.60000000 </v>
    <v>       0.60000000       0.20000000       0.80000000 </v>
    <v>       0.53333333       0.06666667       0.60000000 </v>
    <v>       0.33333333       0.66666667       0.00000000 </v>
    <v>       0.23333333       0.46666667       0.20000000 </v>
   </varray>
  </structure>
  <varray name="forces" >
   <v>      -0.17039733       0.29421018       0.31258396 </v>
   <v>       0.16041931      -0.15453878      -0.28995077 </v>
   <v>       0.13924030       0.05309289      -0.30459941 </v>
   <v>       0.41806508      -0.24886569      -0.06627971 </v>
   <v>      -0.00784580       0.42990612      -0.47218011 </v>
   <v>      -0.33536837       0.19036315      -0.17519919 </v>
   <v>      -0.09798442      -0.60200410       0.06594017 </v>
   <v>      -0.17626976       0.23261856       0.11476806 </v>
   <v>      -0.05984497       0.04930264       0.02343327 </v>
   <v>       0.05691922       0.48693682      -0.49850164 </v>
   <v>      -0.37312771       0.08602822       0.06801071 </v>
   <v>      -0.20793043      -0.07433432      -0.02849614 </v>
   <v>       0.29626104      -0.45734479       0.35567961 </v>
   <v>       0.04853044       0.44497777      -0.20694964 </v>
   <v>       0.17350807      -0.21983463       0.44225550 </v>
   <v>      -0.04281480      -0.72989181       0.10652184 </v>
   <v>      -0.95367103       0.06808680       0.69084635 </v>
   <v>       0.32314241      -0.21840781       0.07860944 </v>
   <v>       0.08641422       0.06112720       0.25754668 </v>
   <v>       0.07151546      -0.34395843      -0.28031879 </v>
   <v>      -0.09441234      -0.14125995      -0.14475798 </v>
   <v>      -0.45503696       0.13738396       0.42496037 </v>
   <v>       0.82282474       0.32291599      -0.65982363 </v>
   <v>      -0.14953995      -0.15415011       0.50418198 </v>
   <v>       0.64692111       0.18209459      -0.72197831 </v>
   <v>       0.04623498       0.43231621      -0.17980626 </v>
   <v>      -0.13379715       0.02962730      -0.10185776 </v>
   <v>      -0.19369418      -0.34851222       0.80611235 </v>
   <v>       0.16173883       0.19211422      -0.12075093 </v>
  </varray>
  <varray name="stress" >
   <v>     -27.86500661       0.62212167      -0.86740328 </v>
   <v>       0.62212167     -25.00381556      -5.54376495 </v>
   <v>      -0.86740326      -5.54376505     -28.87245382 </v>
  </varray>
  <energy>
   <i name="e_fr_energy">   -334.15279741 </i>
   <i name="e_wo_entrp">   -334.14677550 </i>
   <i name="e_0_energy">     -0.01806573 </i>
  </energy>
  <time name="totalsc">  516.53  517.43</time>
 </calculation>
 <calculation>
  <scstep>
   <time name="dav">   22.89   22.92</time>
   <time name="total">   23.53   23.56</time>
   <energy>
    <i name="alphaZ">   1374.16953347 </i>
    <i name="ewald"> -11952.43245664 </i>
    <i name="hartreedc">  -2960.34916463 </i>
    <i name="XCdc">   -857.29799044 </i>
    <i name="pawpsdc">  21074.84865365 </i>
    <i name="pawaedc"> -19552.41407140 </i>
    <i name="eentropy">     -0.01885795 </i>
    <i name="bandstr">   -578.61155217 </i>
    <i name="atom">  13116.42875384 </i>
    <i name="e_fr_energy">   -335.67715227 </i>
    <i name="e_wo_entrp">   -335.65829432 </i>
    <i name="e_0_energy">   -335.67086629 </i>
   </energy>
  </scstep>
  <scstep>
   <time name="dav">   27.13   27.16</time>
   <time name="total">   27.76   27.80</time>
   <energy>
    <i name="e_fr_energy">   -335.97282853 </i>
    <i name="e_wo_entrp">   -335.97147964 </i>
    <i name="e_0_energy">   -335.97237890 </i>
   </energy>
  </scstep>
  <scstep>
   <time name="dav">   26.04   26.08</time>
   <time name="total">   26.67   26.72</time>
   <energy>
    <i name="e_fr_energy">   -334.84851979 </i>
    <i name="e_wo_entrp">   -334.82905165 </i>
    <i name="e_0_energy">   -334.84203041 </i>
   </energy>
  </scstep>
  <scstep>
   <time name="dav">   26.75   26.78</time>
   <time name="total">   27.39   27.42</time>
   <energy>
    <i name="e_fr_energy">   -334.52993138 </i>
    <i name="e_wo_entrp">   -334.52233290 </i>
    <i name="e_0_energy">   -334.52739855 </i>
   </energy>
  </scstep>
  <scstep>
   <time name="dav">   25.83   25.86</time>
   <time name="total">   26.46   26.49</time>
   <energy>
    <i name="e_fr_energy">   -334.33421863 </i>
    <i name="e_wo_entrp">   -334.31875181 </i>
    <i name="e_0_energy">   -334.32906302 </i>
   </energy>
  </scstep>
  <scstep>
   <time name="dav">   26.94   26.97</time>
   <time name="total">   27.57   27.61</time>
   <energy>
    <i name="e_fr_energy">   -334.26920161 </i>
    <i name="e_wo_entrp">   -334.25474252 </i>
    <i name="e_0_energy">   -334.26438191 </i>
   </energy>
  </scstep>
  <scstep>
   <time name="dav">   26.99   27.02</time>
   <time name="total">   27.62   27.65</time>
   <energy>
    <i name="e_fr_energy">   -334.27099977 </i>
    <i name="e_wo_entrp">   -334.25572326 </i>
    <i name="e_0_energy">   -334.26590760 </i>
   </energy>
  </scstep>
  <scstep>
   <time name="dav">   27.04   27.06</time>
   <time name="total">   27.67   27.70</time>
   <energy>
    <i name="e_fr_energy">   -334.27082996 </i>
    <i name="e_wo_entrp">   -334.25553829 </i>
    <i name="e_0_energy">   -334.26573274 </i>
   </energy>
  </scstep>
  <scstep>
   <time name="dav">   25.90   25.93</time>
   <time name="total">   26.53   26.56</time>
   <energy>
    <i name="e_fr_energy">   -334.27537856 </i>
    <i name="e_wo_entrp">   -334.26037952 </i>
    <i name="e_0_energy">   -334.27037888 </i>
   </energy>
  </scstep>
  <scstep>
   <time name="dav">   26.63   26.66</time>
   <time name="total">   27.26   27.29</time>
   <energy>
    <i name="e_fr_energy">   -334.27827192 </i>
    <i name="e_wo_entrp">   -334.26251151 </i>
    <i name="e_0_energy">   -334.27301845 </i>
   </energy>
  </scstep>
  <scstep>
   <time name="dav">   26.17   26.24</time>
   <time name="total">   26.80   26.87</time>
   <energy>
    <i name="e_fr_energy">   -334.27800385 </i>
    <i name="e_wo_entrp">   -334.26263792 </i>
    <i name="e_0_energy">   -334.27288187 </i>
   </energy>
  </scstep>
  <scstep>
   <time name="dav">   26.05   26.07</time>
   <time name="total">   26.68   26.71</time>
   <energy>
    <i name="e_fr_energy">   -334.27771250 </i>
    <i name="e_wo_entrp">   -334.26234725 </i>
    <i name="e_0_energy">   -334.27259075 </i>
   </energy>
  </scstep>
  <scstep>
   <time name="dav">   24.82   24.84</time>
   <time name="total">   25.45   25.47</time>
   <energy>
    <i name="e_fr_energy">   -334.27769823 </i>
    <i name="e_wo_entrp">   -334.26229210 </i>
    <i name="e_0_energy">   -334.27256286 </i>
   </energy>
  </scstep>
  <scstep>
   <time name="dav">   18.46   18.48</time>
   <time name="total">   18.50   18.52</time>
   <energy>
    <i name="alphaZ">   1374.16953347 </i>
    <i name="ewald"> -11952.43245664 </i>
    <i name="hartreedc">  -2884.57599102 </i>
    <i name="XCdc">   -859.48250443 </i>
    <i name="pawpsdc">  22454.68018195 </i>
    <i name="pawaedc"> -20932.88285347 </i>
    <i name="eentropy">     -0.01543910 </i>
    <i name="bandstr">   -650.16693394 </i>
    <i name="atom">  13116.42875384 </i>
    <i name="e_fr_energy">   -334.27770934 </i>
    <i name="e_wo_entrp">   -334.26227024 </i>
    <i name="e_0_energy">   -334.27256297 </i>
   </energy>
  </scstep>
  <structure>
   <crystal>
    <varray name="basis" >
     <v>      -3.14466414      -3.14173665      -3.13309509 </v>
     <v>       1.57652887       1.59769104      -7.86375723 </v>
     <v>       7.86084040      -7.86720670      -1.55286254 </v>
    </varray>
    <i name="volume">    467.07500593 </i>
    <varray name="rec_basis" >
     <v>      -0.13776545      -0.12710508      -0.05344339 </v>
     <v>       0.04232729       0.06318469      -0.10584256 </v>
     <v>       0.06361199      -0.06351933      -0.00015236 </v>
    </varray>
   </crystal>
   <varray name="positions" >
    <v>       0.96521572       0.93230387       0.39859474 </v>
    <v>       0.63394771       0.26798437       0.40095263 </v>
    <v>       0.49953409       0.00197685       0.00026056 </v>
    <v>      -0.00106722       0.00042439       0.00201721 </v>
    <v>       0.09864095       0.20366476       0.79867597 </v>
    <v>       0.03482115       0.06744939       0.59840986 </v>
    <v>       0.90411759       0.79764918       0.20152447 </v>
    <v>       0.79945872       0.59976960       0.39876327 </v>
    <v>       0.73336821       0.46657699       0.19966987 </v>
    <v>       0.66460454       0.33743386      -0.00130064 </v>
    <v>       0.36842008       0.73249831       0.59861123 </v>
    <v>       0.13521746       0.26616621       0.39959592 </v>
    <v>       0.83326192       0.66408777       0.00227937 </v>
    <v>       0.93084514       0.86915365       0.79880090 </v>
    <v>       0.56574473       0.13078885       0.20118971 </v>
    <v>       0.40442738       0.79716904       0.20207815 </v>
    <v>       0.43742990       0.86146704       0.79690957 </v>
    <v>       0.29900540       0.59959472       0.40163798 </v>
    <v>       0.86508145       0.73239416       0.60007648 </v>
    <v>       0.16898524       0.33385029       0.00125665 </v>
    <v>       0.26850477       0.53344543       0.80014170 </v>
    <v>       0.20107982       0.39735575       0.59820815 </v>
    <v>       0.06098412       0.13929537       0.20151203 </v>
    <v>       0.76730835       0.53002395       0.80001394 </v>
    <v>       0.69647873       0.40549474       0.60140592 </v>
    <v>       0.59753503       0.20230723       0.79883225 </v>
    <v>       0.53428766       0.06699996       0.59950570 </v>
    <v>       0.33467909       0.66115835       0.00046827 </v>
    <v>       0.23141561       0.46818258       0.19990813 </v>
   </varray>
  </structure>
  <varray name="forces" >
   <v>       0.00824391       0.20754074       0.16630313 </v>
   <v>      -0.01164064      -0.05483855      -0.06530594 </v>
   <v>      -0.00310702       0.03708111       0.02120161 </v>
   <v>       0.12408465      -0.11530563      -0.11683514 </v>
   <v>      -0.09889804       0.09068510      -0.07764440 </v>
   <v>      -0.27992290       0.15888984      -0.05808511 </v>
   <v>       0.04246002      -0.27694806       0.01341150 </v>
   <v>       0.08536022       0.20134401      -0.18775697 </v>
   <v>       0.02203595      -0.12552663       0.16042629 </v>
   <v>       0.03465458       0.10474117      -0.09250186 </v>
   <v>      -0.32887080       0.21673804      -0.04389655 </v>
   <v>      -0.19332328      -0.16088611       0.14730818 </v>
   <v>       0.09260636      -0.07162028      -0.02203876 </v>
   <v>      -0.02570628       0.08181595      -0.11034594 </v>
   <v>       0.34089628      -0.26202349       0.40119944 </v>
   <v>       0.24707472      -0.47633426      -0.27837094 </v>
   <v>      -0.19977559       0.08670880       0.26536523 </v>
   <v>       0.23738945      -0.18899940       0.01232580 </v>
   <v>      -0.07546439       0.07885799       0.15667234 </v>
   <v>       0.01386558      -0.21406282      -0.12469514 </v>
   <v>      -0.04302931       0.02697613       0.06443509 </v>
   <v>      -0.17783784       0.19496607       0.15937199 </v>
   <v>       0.51496400       0.09135857      -0.41584734 </v>
   <v>      -0.12852761      -0.03085662       0.02429218 </v>
   <v>       0.14666665       0.15702987      -0.27600950 </v>
   <v>       0.03816877       0.18264295      -0.08095585 </v>
   <v>      -0.32876533       0.15728263       0.03316809 </v>
   <v>      -0.08438769      -0.03123033       0.27504872 </v>
   <v>       0.03078558      -0.06602680       0.04975982 </v>
  </varray>
  <varray name="stress" >
   <v>      65.18961570       0.26995380      -0.38530500 </v>
   <v>       0.26995377      67.73315878      -4.04832139 </v>
   <v>      -0.38530489      -4.04832147      66.63862499 </v>
  </varray>
  <energy>
   <i name="e_fr_energy">   -334.27770934 </i>
   <i name="e_wo_entrp">   -334.27256297 </i>
   <i name="e_0_energy">     -0.01543910 </i>
  </energy>
  <time name="totalsc">  383.98  384.49</time>
 </calculation>
 <calculation>
  <scstep>
   <time name="dav">   22.20   22.23</time>
   <time name="total">   22.83   22.86</time>
   <energy>
    <i name="alphaZ">   1350.89795115 </i>
    <i name="ewald"> -11867.60893241 </i>
    <i name="hartreedc">  -2884.52531494 </i>
    <i name="XCdc">   -861.59441822 </i>
    <i name="pawpsdc">  22454.18297328 </i>
    <i name="pawaedc"> -20932.34523385 </i>
    <i name="eentropy">     -0.01485864 </i>
    <i name="bandstr">   -710.05092881 </i>
    <i name="atom">  13116.42875384 </i>
    <i name="e_fr_energy">   -334.63000860 </i>
    <i name="e_wo_entrp">   -334.61514996 </i>
    <i name="e_0_energy">   -334.62505572 </i>
   </energy>
  </scstep>
  <scstep>
   <time name="dav">   28.32   28.36</time>
   <time name="total">   28.95   28.99</time>
   <energy>
    <i name="e_fr_energy">   -334.67942784 </i>
    <i name="e_wo_entrp">   -334.65950124 </i>
    <i name="e_0_energy">   -334.67278564 </i>
   </energy>
  </scstep>
  <scstep>
   <time name="dav">   25.78   25.81</time>
   <time name="total">   26.41   26.45</time>
   <energy>
    <i name="e_fr_energy">   -334.54125940 </i>
    <i name="e_wo_entrp">   -334.53059860 </i>
    <i name="e_0_energy">   -334.53770580 </i>
   </energy>
  </scstep>
  <scstep>
   <time name="dav">   27.54   27.57</time>
   <time name="total">   28.17   28.20</time>
   <energy>
    <i name="e_fr_energy">   -334.44925351 </i>
    <i name="e_wo_entrp">   -334.42982403 </i>
    <i name="e_0_energy">   -334.44277702 </i>
   </energy>
  </scstep>
  <scstep>
   <time name="dav">   25.73   25.76</time>
   <time name="total">   26.36   26.39</time>
   <energy>
    <i name="e_fr_energy">   -334.41650075 </i>
    <i name="e_wo_entrp">   -334.40169980 </i>
    <i name="e_0_energy">   -334.41156710 </i>
   </energy>
  </scstep>
  <scstep>
   <time name="dav">   26.21   26.27</time>
   <time name="total">   26.84   26.91</time>
   <energy>
    <i name="e_fr_energy">   -334.40014109 </i>
    <i name="e_wo_entrp">   -334.38333762 </i>
    <i name="e_0_energy">   -334.39453993 </i>
   </energy>
  </scstep>
  <scstep>
   <time name="dav">   25.98   26.04</time>
   <time name="total">   26.61   26.66</time>
   <energy>
    <i name="e_fr_energy">   -334.40049026 </i>
    <i name="e_wo_entrp">   -334.38389504 </i>
    <i name="e_0_energy">   -334.39495852 </i>
   </energy>
  </scstep>
  <scstep>
   <time name="dav">   25.99   26.05</time>
   <time name="total">   26.62   26.68</time>
   <energy>
    <i name="e_fr_energy">   -334.40009570 </i>
    <i name="e_wo_entrp">   -334.38325423 </i>
    <i name="e_0_energy">   -334.39448188 </i>
   </energy>
  </scstep>
  <scstep>
   <time name="dav">   24.90   24.93</time>
   <time name="total">   25.54   25.58</time>
   <energy>
    <i name="e_fr_energy">   -334.39990517 </i>
    <i name="e_wo_entrp">   -334.38309395 </i>
    <i name="e_0_energy">   -334.39430143 </i>
   </energy>
  </scstep>
  <scstep>
   <time name="dav">   25.02   25.05</time>
   <time name="total">   25.65   25.68</time>
   <energy>
    <i name="e_fr_energy">   -334.40035409 </i>
    <i name="e_wo_entrp">   -334.38364272 </i>
    <i name="e_0_energy">   -334.39478363 </i>
   </energy>
  </scstep>
  <scstep>
   <time name="dav">   25.94   25.98</time>
   <time name="total">   26.57   26.60</time>
   <energy>
    <i name="e_fr_energy">   -334.40057587 </i>
    <i name="e_wo_entrp">   -334.38387170 </i>
    <i name="e_0_energy">   -334.39500781 </i>
   </energy>
  </scstep>
  <scstep>
   <time name="dav">   24.25   24.28</time>
   <time name="total">   24.89   24.92</time>
   <energy>
    <i name="e_fr_energy">   -334.40052145 </i>
    <i name="e_wo_entrp">   -334.38378117 </i>
    <i name="e_0_energy">   -334.39494136 </i>
   </energy>
  </scstep>
  <scstep>
   <time name="dav">   16.07   16.08</time>
   <time name="total">   16.11   16.13</time>
   <energy>
    <i name="alphaZ">   1350.89795115 </i>
    <i name="ewald"> -11867.60893241 </i>
    <i name="hartreedc">  -2915.30024738 </i>
    <i name="XCdc">   -860.70405863 </i>
    <i name="pawpsdc">  21862.67779244 </i>
    <i name="pawaedc"> -20340.37890420 </i>
    <i name="eentropy">     -0.01672624 </i>
    <i name="bandstr">   -680.39613167 </i>
    <i name="atom">  13116.42875384 </i>
    <i name="e_fr_energy">   -334.40050310 </i>
    <i name="e_wo_entrp">   -334.38377686 </i>
    <i name="e_0_energy">   -334.39492768 </i>
   </energy>
  </scstep>
  <structure>
   <crystal>
    <varray name="basis" >
     <v>      -3.16318917      -3.16145791      -3.15634744 </v>
     <v>       1.58407650       1.59659143      -7.90921300 </v>
     <v>       7.90748804      -7.91125295      -1.57008065 </v>
    </varray>
    <i name="volume">    475.12119065 </i>
    <varray name="rec_basis" >
     <v>      -0.13697255      -0.12639908      -0.05294872 </v>
     <v>       0.04210909       0.06298444      -0.10528678 </v>
     <v>       0.06323448      -0.06318016      -0.00008909 </v>
    </varray>
   </crystal>
   <varray name="positions" >
    <v>       0.96581945       0.93273178       0.39917775 </v>
    <v>       0.63369069       0.26743804       0.40055709 </v>
    <v>       0.49972436       0.00115900       0.00015152 </v>
    <v>      -0.00062524       0.00024724       0.00118115 </v>
    <v>       0.09919936       0.20215065       0.79922269 </v>
    <v>       0.03420278       0.06712657       0.59906824 </v>
    <v>       0.90241258       0.79861835       0.20089374 </v>
    <v>       0.79968377       0.59986640       0.39927592 </v>
    <v>       0.73335390       0.46661441       0.19980672 </v>
    <v>       0.66545401       0.33573977      -0.00076380 </v>
    <v>       0.36769396       0.73284439       0.59918704 </v>
    <v>       0.13443650       0.26637284       0.39976350 </v>
    <v>       0.83329528       0.66515233       0.00133627 </v>
    <v>       0.93187384       0.86812713       0.79929660 </v>
    <v>       0.56613104       0.13184064       0.20069820 </v>
    <v>       0.40259451       0.79833614       0.20121822 </v>
    <v>       0.43573839       0.86361938       0.79819278 </v>
    <v>       0.29941855       0.59976114       0.40095953 </v>
    <v>       0.86574061       0.73278328       0.60004544 </v>
    <v>       0.16802231       0.33363416       0.00073544 </v>
    <v>       0.26774192       0.53339812       0.80008277 </v>
    <v>       0.20063599       0.39845097       0.59895206 </v>
    <v>       0.06333266       0.13682992       0.20088259 </v>
    <v>       0.76704716       0.53139268       0.80000996 </v>
    <v>       0.69793124       0.40322177       0.60082054 </v>
    <v>       0.59855437       0.20135502       0.79931506 </v>
    <v>       0.53389123       0.06686217       0.59971027 </v>
    <v>       0.33412909       0.66343597       0.00027719 </v>
    <v>       0.23220900       0.46755640       0.19994550 </v>
   </varray>
  </structure>
  <varray name="forces" >
   <v>      -0.07241031       0.25162127       0.23457250 </v>
   <v>       0.06654096      -0.09665136      -0.16078861 </v>
   <v>       0.05769781       0.04602689      -0.12162093 </v>
   <v>       0.25100813      -0.17021003      -0.09546954 </v>
   <v>      -0.05843181       0.23735053      -0.25063833 </v>
   <v>      -0.30846658       0.17474165      -0.11326860 </v>
   <v>      -0.00903278      -0.42442690       0.04175582 </v>
   <v>      -0.02465745       0.22192493      -0.05840844 </v>
   <v>      -0.01715523      -0.05229356       0.10092444 </v>
   <v>       0.04545063       0.28458733      -0.28211226 </v>
   <v>      -0.35473644       0.15441929       0.00949079 </v>
   <v>      -0.20183801      -0.12849673       0.07454876 </v>
   <v>       0.17403574      -0.24272760       0.14472089 </v>
   <v>      -0.00938953       0.23227075      -0.18028091 </v>
   <v>       0.26229101      -0.25949795       0.43194626 </v>
   <v>       0.14057568      -0.57223908      -0.11224512 </v>
   <v>      -0.54171857       0.07811627       0.45679156 </v>
   <v>       0.28577322      -0.20870809       0.04171607 </v>
   <v>      -0.00280309       0.07920128       0.20627010 </v>
   <v>       0.03841163      -0.27109304      -0.19840181 </v>
   <v>      -0.07323978      -0.05388041      -0.02571405 </v>
   <v>      -0.29678139       0.17235253       0.27386553 </v>
   <v>       0.66082989       0.18532874      -0.52992099 </v>
   <v>      -0.14280619      -0.08094897       0.25526475 </v>
   <v>       0.37635099       0.16782427      -0.48267754 </v>
   <v>       0.04462082       0.29357866      -0.13258574 </v>
   <v>      -0.24291949       0.10372941      -0.02281583 </v>
   <v>      -0.13587351      -0.17886648       0.52301773 </v>
   <v>       0.08867364       0.05696639      -0.02793652 </v>
  </varray>
  <varray name="stress" >
   <v>      25.17647721       0.50372721      -0.54736243 </v>
   <v>       0.50372720      27.80591631      -4.62568832 </v>
   <v>      -0.54736249      -4.62568839      25.48497346 </v>
  </varray>
  <energy>
   <i name="e_fr_energy">   -334.40050310 </i>
   <i name="e_wo_entrp">   -334.39492768 </i>
   <i name="e_0_energy">     -0.01672624 </i>
  </energy>
  <time name="totalsc">  349.53  350.06</time>
 </calculation>
 <calculation>
  <scstep>
   <time name="dav">   18.58   18.60</time>
   <time name="total">   19.22   19.25</time>
   <energy>
    <i name="alphaZ">   1336.98132445 </i>
    <i name="ewald"> -11869.77524495 </i>
    <i name="hartreedc">  -2863.87287164 </i>
    <i name="XCdc">   -862.19143538 </i>
    <i name="pawpsdc">  21863.33696265 </i>
    <i name="pawaedc"> -20341.11521416 </i>
    <i name="eentropy">     -0.01207411 </i>
    <i name="bandstr">   -714.25982665 </i>
    <i name="atom">  13116.42875384 </i>
    <i name="e_fr_energy">   -334.47962596 </i>
    <i name="e_wo_entrp">   -334.46755185 </i>
    <i name="e_0_energy">   -334.47560125 </i>
   </energy>
  </scstep>
  <scstep>
   <time name="dav">   26.39   26.42</time>
   <time name="total">   27.02   27.06</time>
   <energy>
    <i name="e_fr_energy">   -334.73969407 </i>
    <i name="e_wo_entrp">   -334.72459205 </i>
    <i name="e_0_energy">   -334.73466006 </i>
   </energy>
  </scstep>
  <scstep>
   <time name="dav">   24.98   25.04</time>
   <time name="total">   25.61   25.67</time>
   <energy>
    <i name="e_fr_energy">   -334.71930802 </i>
    <i name="e_wo_entrp">   -334.70876313 </i>
    <i name="e_0_energy">   -334.71579305 </i>
   </energy>
  </scstep>
  <scstep>
   <time name="dav">   25.71   25.77</time>
   <time name="total">   26.33   26.39</time>
   <energy>
    <i name="e_fr_energy">   -334.67991303 </i>
    <i name="e_wo_entrp">   -334.66524912 </i>
    <i name="e_0_energy">   -334.67502506 </i>
   </energy>
  </scstep>
  <scstep>
   <time name="dav">   26.55   26.59</time>
   <time name="total">   27.19   27.24</time>
   <energy>
    <i name="e_fr_energy">   -334.66002511 </i>
    <i name="e_wo_entrp">   -334.64754472 </i>
    <i name="e_0_energy">   -334.65586498 </i>
   </energy>
  </scstep>
  <scstep>
   <time name="dav">   25.96   25.99</time>
   <time name="total">   26.59   26.62</time>
   <energy>
    <i name="e_fr_energy">   -334.65660883 </i>
    <i name="e_wo_entrp">   -334.64380665 </i>
    <i name="e_0_energy">   -334.65234143 </i>
   </energy>
  </scstep>
  <scstep>
   <time name="dav">   27.75   27.78</time>
   <time name="total">   28.37   28.40</time>
   <energy>
    <i name="e_fr_energy">   -334.65009658 </i>
    <i name="e_wo_entrp">   -334.63647140 </i>
    <i name="e_0_energy">   -334.64555485 </i>
   </energy>
  </scstep>
  <scstep>
   <time name="dav">   25.29   25.35</time>
   <time name="total">   25.91   25.98</time>
   <energy>
    <i name="e_fr_energy">   -334.64899711 </i>
    <i name="e_wo_entrp">   -334.63583303 </i>
    <i name="e_0_energy">   -334.64460908 </i>
   </energy>
  </scstep>
  <scstep>
   <time name="dav">   23.30   23.36</time>
   <time name="total">   23.92   24.00</time>
   <energy>
    <i name="e_fr_energy">   -334.64876915 </i>
    <i name="e_wo_entrp">   -334.63554799 </i>
    <i name="e_0_energy">   -334.64436210 </i>
   </energy>
  </scstep>
  <scstep>
   <time name="dav">   23.14   23.16</time>
   <time name="total">   23.76   23.80</time>
   <energy>
    <i name="e_fr_energy">   -334.64889080 </i>
    <i name="e_wo_entrp">   -334.63566395 </i>
    <i name="e_0_energy">   -334.64448185 </i>
   </energy>
  </scstep>
  <scstep>
   <time name="dav">   23.86   23.88</time>
   <time name="total">   24.50   24.53</time>
   <energy>
    <i name="e_fr_energy">   -334.64897973 </i>
    <i name="e_wo_entrp">   -334.63572616 </i>
    <i name="e_0_energy">   -334.64456187 </i>
   </energy>
  </scstep>
  <scstep>
   <time name="dav">   21.02   21.05</time>
   <time name="total">   21.06   21.08</time>
   <energy>
    <i name="alphaZ">   1336.98132445 </i>
    <i name="ewald"> -11869.77524495 </i>
    <i name="hartreedc">  -2879.21151681 </i>
    <i name="XCdc">   -861.67010799 </i>
    <i name="pawpsdc">  21476.11979422 </i>
    <i name="pawaedc"> -19954.31475432 </i>
    <i name="eentropy">     -0.01320554 </i>
    <i name="bandstr">   -699.19395063 </i>
    <i name="atom">  13116.42875384 </i>
    <i name="e_fr_energy">   -334.64890774 </i>
    <i name="e_wo_entrp">   -334.63570220 </i>
    <i name="e_0_energy">   -334.64450589 </i>
   </energy>
  </scstep>
  <structure>
   <crystal>
    <varray name="basis" >
     <v>      -3.17201909      -3.16677058      -3.15241873 </v>
     <v>       1.59298402       1.63246631      -7.93710938 </v>
     <v>       7.92793119      -7.94055376      -1.55046028 </v>
    </varray>
    <i name="volume">    480.06672289 </i>
    <varray name="rec_basis" >
     <v>      -0.13655626      -0.12593041      -0.05330771 </v>
     <v>       0.04191500       0.06230436      -0.10476362 </v>
     <v>       0.06307711      -0.06290462      -0.00027829 </v>
    </varray>
   </crystal>
   <varray name="positions" >
    <v>       0.96359726       0.93166894       0.39755218 </v>
    <v>       0.63451261       0.26873191       0.40151213 </v>
    <v>       0.49916776       0.00300237       0.00032784 </v>
    <v>      -0.00153914       0.00089214       0.00339889 </v>
    <v>       0.09808945       0.20578344       0.79771970 </v>
    <v>       0.03610879       0.06796965       0.59692687 </v>
    <v>       0.90686832       0.79601854       0.20282109 </v>
    <v>       0.79849247       0.60052536       0.39794732 </v>
    <v>       0.73352234       0.46596025       0.19971484 </v>
    <v>       0.66318969       0.34005376      -0.00210564 </v>
    <v>       0.36984472       0.73212505       0.59708843 </v>
    <v>       0.13712959       0.26508732       0.39934740 </v>
    <v>       0.83321887       0.66276839       0.00368544 </v>
    <v>       0.92973154       0.87087359       0.79800325 </v>
    <v>       0.56454366       0.12833642       0.20271612 </v>
    <v>       0.40748347       0.79601583       0.20422873 </v>
    <v>       0.43966150       0.85801517       0.79485825 </v>
    <v>       0.29824847       0.59931049       0.40315722 </v>
    <v>       0.86401189       0.73156736       0.59987276 </v>
    <v>       0.17094001       0.33414645       0.00224036 </v>
    <v>       0.26951321       0.53330536       0.80011096 </v>
    <v>       0.20141199       0.39572758       0.59673262 </v>
    <v>       0.05664268       0.14406410       0.20296641 </v>
    <v>       0.76807092       0.52799217       0.79985374 </v>
    <v>       0.69403603       0.40945266       0.60214857 </v>
    <v>       0.59569544       0.20404792       0.79801993 </v>
    <v>       0.53530301       0.06699333       0.59853214 </v>
    <v>       0.33542743       0.65741223       0.00064436 </v>
    <v>       0.23040938       0.46881889       0.19997808 </v>
   </varray>
  </structure>
  <varray name="forces" >
   <v>       0.06807415       0.12979038       0.11999632 </v>
   <v>      -0.04136233      -0.01977038      -0.06509663 </v>
   <v>      -0.15090744      -0.03411501       0.17086459 </v>
   <v>      -0.04175640      -0.00678052      -0.00569783 </v>
   <v>      -0.09932742      -0.05779168       0.17711129 </v>
   <v>      -0.09330973       0.10279068       0.02569800 </v>
   <v>      -0.00634794      -0.06770038       0.02609398 </v>
   <v>       0.03461122       0.06897051      -0.11880434 </v>
   <v>       0.15752994      -0.09056176       0.08291243 </v>
   <v>       0.00880167      -0.08505125       0.14045443 </v>
   <v>      -0.13594711       0.11602309       0.00472437 </v>
   <v>      -0.06206960      -0.03870276       0.01573558 </v>
   <v>       0.01030457       0.18368581      -0.20969478 </v>
   <v>       0.06148654      -0.06016926      -0.10571330 </v>
   <v>       0.24606176      -0.09642507       0.18881950 </v>
   <v>       0.14763247      -0.20245245      -0.18198745 </v>
   <v>       0.12728001       0.08324804      -0.01392519 </v>
   <v>       0.02856260      -0.00974301       0.02987750 </v>
   <v>      -0.08986237       0.01118004       0.01898805 </v>
   <v>      -0.01435050      -0.09785921      -0.08645554 </v>
   <v>      -0.01771016       0.09164136       0.11137477 </v>
   <v>      -0.07667576       0.15798870       0.09563590 </v>
   <v>       0.30306915       0.01788604      -0.18227888 </v>
   <v>      -0.02506709       0.02854444      -0.22343807 </v>
   <v>      -0.10208926       0.09190172       0.04159061 </v>
   <v>      -0.12071445      -0.00507128       0.06907721 </v>
   <v>      -0.19292623      -0.01094828      -0.05481117 </v>
   <v>       0.07443278       0.03279447      -0.12247706 </v>
   <v>       0.00257695      -0.23330299       0.05142570 </v>
  </varray>
  <varray name="stress" >
   <v>       2.74285012       0.09934105      -0.30538884 </v>
   <v>       0.09934109       2.99163727      -1.63035967 </v>
   <v>      -0.30538882      -1.63035958       4.96261791 </v>
  </varray>
  <energy>
   <i name="e_fr_energy">   -334.64890774 </i>
   <i name="e_wo_entrp">   -334.64450589 </i>
   <i name="e_0_energy">     -0.01320554 </i>
  </energy>
  <time name="totalsc">  317.42  317.99</time>
 </calculation>
 <calculation>
  <scstep>
   <time name="dav">   19.21   19.23</time>
   <time name="total">   19.85   19.88</time>
   <energy>
    <i name="alphaZ">   1335.64884103 </i>
    <i name="ewald"> -11869.57338196 </i>
    <i name="hartreedc">  -2874.55896487 </i>
    <i name="XCdc">   -861.81362221 </i>
    <i name="pawpsdc">  21475.66249196 </i>
    <i name="pawaedc"> -19953.88226478 </i>
    <i name="eentropy">     -0.01276173 </i>
    <i name="bandstr">   -702.54855065 </i>
    <i name="atom">  13116.42875384 </i>
    <i name="e_fr_energy">   -334.64945939 </i>
    <i name="e_wo_entrp">   -334.63669766 </i>
    <i name="e_0_energy">   -334.64520548 </i>
   </energy>
  </scstep>
  <scstep>
   <time name="dav">   26.30   26.33</time>
   <time name="total">   26.93   26.96</time>
   <energy>
    <i name="e_fr_energy">   -334.65155755 </i>
    <i name="e_wo_entrp">   -334.63853409 </i>
    <i name="e_0_energy">   -334.64721639 </i>
   </energy>
  </scstep>
  <scstep>
   <time name="dav">   25.51   25.57</time>
   <time name="total">   26.14   26.21</time>
   <energy>
    <i name="e_fr_energy">   -334.65143525 </i>
    <i name="e_wo_entrp">   -334.63880182 </i>
    <i name="e_0_energy">   -334.64722410 </i>
   </energy>
  </scstep>
  <scstep>
   <time name="dav">   24.00   24.03</time>
   <time name="total">   24.64   24.67</time>
   <energy>
    <i name="e_fr_energy">   -334.65110412 </i>
    <i name="e_wo_entrp">   -334.63808792 </i>
    <i name="e_0_energy">   -334.64676539 </i>
   </energy>
  </scstep>
  <scstep>
   <time name="dav">   23.25   23.27</time>
   <time name="total">   23.87   23.90</time>
   <energy>
    <i name="e_fr_energy">   -334.65097071 </i>
    <i name="e_wo_entrp">   -334.63820875 </i>
    <i name="e_0_energy">   -334.64671672 </i>
   </energy>
  </scstep>
  <scstep>
   <time name="dav">   22.00   22.03</time>
   <time name="total">   22.64   22.67</time>
   <energy>
    <i name="e_fr_energy">   -334.65093026 </i>
    <i name="e_wo_entrp">   -334.63810871 </i>
    <i name="e_0_energy">   -334.64665641 </i>
   </energy>
  </scstep>
  <scstep>
   <time name="dav">   17.61   17.63</time>
   <time name="total">   17.65   17.67</time>
   <energy>
    <i name="alphaZ">   1335.64884103 </i>
    <i name="ewald"> -11869.57338196 </i>
    <i name="hartreedc">  -2876.18329175 </i>
    <i name="XCdc">   -861.76086983 </i>
    <i name="pawpsdc">  21442.89891791 </i>
    <i name="pawaedc"> -19921.11431896 </i>
    <i name="eentropy">     -0.01287023 </i>
    <i name="bandstr">   -700.98264068 </i>
    <i name="atom">  13116.42875384 </i>
    <i name="e_fr_energy">   -334.65086064 </i>
    <i name="e_wo_entrp">   -334.63799041 </i>
    <i name="e_0_energy">   -334.64657056 </i>
   </energy>
  </scstep>
  <structure>
   <crystal>
    <varray name="basis" >
     <v>      -3.17287220      -3.16728387      -3.15203916 </v>
     <v>       1.59384463       1.63593240      -7.93980461 </v>
     <v>       7.92990633      -7.94338469      -1.54856464 </v>
    </varray>
    <i name="volume">    480.54565188 </i>
    <varray name="rec_basis" >
     <v>      -0.13651621      -0.12588551      -0.05334209 </v>
     <v>       0.04189636       0.06223919      -0.10471348 </v>
     <v>       0.06306193      -0.06287820      -0.00029643 </v>
    </varray>
   </crystal>
   <varray name="positions" >
    <v>       0.96338246       0.93156610       0.39739539 </v>
    <v>       0.63459244       0.26885660       0.40160434 </v>
    <v>       0.49911483       0.00317947       0.00034511 </v>
    <v>      -0.00162699       0.00095465       0.00361257 </v>
    <v>       0.09798387       0.20613193       0.79757550 </v>
    <v>       0.03629295       0.06805024       0.59672081 </v>
    <v>       0.90729706       0.79576979       0.20300639 </v>
    <v>       0.79837781       0.60058816       0.39781944 </v>
    <v>       0.73353832       0.46589739       0.19970589 </v>
    <v>       0.66297303       0.34046762      -0.00223422 </v>
    <v>       0.37005184       0.73205555       0.59688623 </v>
    <v>       0.13738882       0.26496397       0.39930717 </v>
    <v>       0.83321055       0.66254001       0.00391130 </v>
    <v>       0.92952601       0.87113686       0.79787908 </v>
    <v>       0.56438914       0.12800015       0.20290987 </v>
    <v>       0.40795412       0.79579429       0.20451842 </v>
    <v>       0.44003756       0.85747615       0.79453626 </v>
    <v>       0.29813545       0.59926771       0.40336879 </v>
    <v>       0.86384464       0.73145030       0.59985590 </v>
    <v>       0.17122167       0.33419643       0.00238545 </v>
    <v>       0.26968402       0.53329664       0.80011369 </v>
    <v>       0.20148569       0.39546535       0.59651843 </v>
    <v>       0.05600039       0.14475906       0.20316815 </v>
    <v>       0.76816827       0.52766551       0.79983816 </v>
    <v>       0.69366289       0.41005130       0.60227741 </v>
    <v>       0.59542076       0.20430597       0.79789557 </v>
    <v>       0.53543923       0.06700574       0.59841872 </v>
    <v>       0.33555019       0.65683371       0.00067877 </v>
    <v>       0.23023632       0.46894001       0.19998138 </v>
   </varray>
  </structure>
  <varray name="forces" >
   <v>       0.07903970       0.12663254       0.11068924 </v>
   <v>      -0.05039795      -0.01610521      -0.06210464 </v>
   <v>      -0.16871223      -0.04000806       0.19164244 </v>
   <v>      -0.05729367       0.00301759      -0.00207675 </v>
   <v>      -0.10533989      -0.07740631       0.20823264 </v>
   <v>      -0.07962683       0.09789468       0.03473427 </v>
   <v>      -0.00906809      -0.03253224       0.02604649 </v>
   <v>       0.03665252       0.05470584      -0.12374422 </v>
   <v>       0.17527203      -0.09582273       0.07969166 </v>
   <v>       0.00393738      -0.12058112       0.18153179 </v>
   <v>      -0.11209841       0.11048498       0.00544688 </v>
   <v>      -0.04572796      -0.03059598       0.00514370 </v>
   <v>      -0.00189444       0.21919770      -0.24086011 </v>
   <v>       0.07006378      -0.08742551      -0.09770513 </v>
   <v>       0.24386180      -0.08952425       0.17046273 </v>
   <v>       0.14255663      -0.16029859      -0.18791013 </v>
   <v>       0.18301316       0.07906449      -0.04453274 </v>
   <v>       0.01380917       0.00071183       0.03680555 </v>
   <v>      -0.10027947       0.00424296       0.00566697 </v>
   <v>      -0.02208291      -0.07732524      -0.07805342 </v>
   <v>      -0.01598258       0.10626017       0.12590037 </v>
   <v>      -0.05763794       0.15530477       0.07775875 </v>
   <v>       0.26516888      -0.00085528      -0.14838849 </v>
   <v>      -0.01171346       0.03654946      -0.27079294 </v>
   <v>      -0.14828368       0.08553708       0.09535878 </v>
   <v>      -0.13468270      -0.02960784       0.08689561 </v>
   <v>      -0.18189750      -0.01559005      -0.06462972 </v>
   <v>       0.09318170       0.05519824      -0.18123241 </v>
   <v>      -0.00383707      -0.26112392       0.06002283 </v>
  </varray>
  <varray name="stress" >
   <v>       0.93198546       0.01832634      -0.37690198 </v>
   <v>       0.01832623       0.89623082      -1.40145505 </v>
   <v>      -0.37690201      -1.40145522       3.38201763 </v>
  </varray>
  <energy>
   <i name="e_fr_energy">   -334.65086064 </i>
   <i name="e_wo_entrp">   -334.64657056 </i>
   <i name="e_0_energy">     -0.01287023 </i>
  </energy>
  <time name="totalsc">  179.82  180.08</time>
 </calculation>
 <calculation>
  <scstep>
   <time name="dav">   18.86   18.91</time>
   <time name="total">   19.48   19.53</time>
   <energy>
    <i name="alphaZ">   1331.90851726 </i>
    <i name="ewald"> -11854.72241196 </i>
    <i name="hartreedc">  -2877.23995400 </i>
    <i name="XCdc">   -862.11512890 </i>
    <i name="pawpsdc">  21442.76714404 </i>
    <i name="pawaedc"> -19920.99689673 </i>
    <i name="eentropy">     -0.01058332 </i>
    <i name="bandstr">   -710.69312113 </i>
    <i name="atom">  13116.42875384 </i>
    <i name="e_fr_energy">   -334.67368091 </i>
    <i name="e_wo_entrp">   -334.66309758 </i>
    <i name="e_0_energy">   -334.67015313 </i>
   </energy>
  </scstep>
  <scstep>
   <time name="dav">   26.02   26.09</time>
   <time name="total">   26.65   26.72</time>
   <energy>
    <i name="e_fr_energy">   -334.70913468 </i>
    <i name="e_wo_entrp">   -334.69573916 </i>
    <i name="e_0_energy">   -334.70466951 </i>
   </energy>
  </scstep>
  <scstep>
   <time name="dav">   25.25   25.30</time>
   <time name="total">   25.89   25.94</time>
   <energy>
    <i name="e_fr_energy">   -334.69094284 </i>
    <i name="e_wo_entrp">   -334.68020067 </i>
    <i name="e_0_energy">   -334.68736211 </i>
   </energy>
  </scstep>
  <scstep>
   <time name="dav">   26.50   26.53</time>
   <time name="total">   27.12   27.15</time>
   <energy>
    <i name="e_fr_energy">   -334.68904373 </i>
    <i name="e_wo_entrp">   -334.67731659 </i>
    <i name="e_0_energy">   -334.68513468 </i>
   </energy>
  </scstep>
  <scstep>
   <time name="dav">   25.76   25.79</time>
   <time name="total">   26.39   26.42</time>
   <energy>
    <i name="e_fr_energy">   -334.68749951 </i>
    <i name="e_wo_entrp">   -334.67615075 </i>
    <i name="e_0_energy">   -334.68371659 </i>
   </energy>
  </scstep>
  <scstep>
   <time name="dav">   26.04   26.07</time>
   <time name="total">   26.67   26.70</time>
   <energy>
    <i name="e_fr_energy">   -334.68715666 </i>
    <i name="e_wo_entrp">   -334.67547942 </i>
    <i name="e_0_energy">   -334.68326424 </i>
   </energy>
  </scstep>
  <scstep>
   <time name="dav">   24.48   24.50</time>
   <time name="total">   25.10   25.12</time>
   <energy>
    <i name="e_fr_energy">   -334.68642624 </i>
    <i name="e_wo_entrp">   -334.67489914 </i>
    <i name="e_0_energy">   -334.68258388 </i>
   </energy>
  </scstep>
  <scstep>
   <time name="dav">   22.88   22.91</time>
   <time name="total">   23.50   23.53</time>
   <energy>
    <i name="e_fr_energy">   -334.68626803 </i>
    <i name="e_wo_entrp">   -334.67470303 </i>
    <i name="e_0_energy">   -334.68241303 </i>
   </energy>
  </scstep>
  <scstep>
   <time name="dav">   15.26   15.27</time>
   <time name="total">   15.29   15.31</time>
   <energy>
    <i name="alphaZ">   1331.90851726 </i>
    <i name="ewald"> -11854.72241196 </i>
    <i name="hartreedc">  -2882.41909420 </i>
    <i name="XCdc">   -861.96658544 </i>
    <i name="pawpsdc">  21339.13327153 </i>
    <i name="pawaedc"> -19817.17092208 </i>
    <i name="eentropy">     -0.01152694 </i>
    <i name="bandstr">   -705.86625642 </i>
    <i name="atom">  13116.42875384 </i>
    <i name="e_fr_energy">   -334.68625441 </i>
    <i name="e_wo_entrp">   -334.67472748 </i>
    <i name="e_0_energy">   -334.68241210 </i>
   </energy>
  </scstep>
  <structure>
   <crystal>
    <varray name="basis" >
     <v>      -3.17412773      -3.16690086      -3.15401944 </v>
     <v>       1.59627183       1.64330419      -7.95420743 </v>
     <v>       7.93437699      -7.94700894      -1.54627211 </v>
    </varray>
    <i name="volume">    481.89514121 </i>
    <varray name="rec_basis" >
     <v>      -0.13644701      -0.12584358      -0.05338128 </v>
     <v>       0.04185170       0.06211568      -0.10448789 </v>
     <v>       0.06302865      -0.06284011      -0.00033373 </v>
    </varray>
   </crystal>
   <varray name="positions" >
    <v>       0.96189409       0.93149404       0.39718441 </v>
    <v>       0.63514944       0.26906623       0.40156363 </v>
    <v>       0.49983707       0.00202849       0.00001031 </v>
    <v>      -0.00135655       0.00090437       0.00356756 </v>
    <v>       0.09847472       0.20501377       0.79742069 </v>
    <v>       0.03625296       0.06805651       0.59613941 </v>
    <v>       0.90769353       0.79542021       0.20316770 </v>
    <v>       0.79809365       0.60137478       0.39770474 </v>
    <v>       0.73286900       0.46557059       0.20041846 </v>
    <v>       0.66306516       0.33958178      -0.00197623 </v>
    <v>       0.37020969       0.73208587       0.59618783 </v>
    <v>       0.13794130       0.26471431       0.39924509 </v>
[...]
       <r>    4.7013    1.0000 </r>
       <r>    4.7174    1.0000 </r>
       <r>    4.7787    1.0000 </r>
       <r>    4.8666    1.0000 </r>
       <r>    4.8956    1.0000 </r>
       <r>    4.9368    1.0000 </r>
       <r>    4.9813    1.0000 </r>
       <r>    5.0036    1.0000 </r>
       <r>    5.0580    1.0000 </r>
       <r>    5.1493    1.0000 </r>
       <r>    5.1831    1.0000 </r>
       <r>    5.2856    1.0000 </r>
       <r>    5.3164    1.0000 </r>
       <r>    5.3460    1.0000 </r>
       <r>    5.4340    1.0000 </r>
       <r>    5.4784    1.0000 </r>
       <r>    5.5114    1.0000 </r>
       <r>    5.5940    1.0000 </r>
       <r>    5.6253    1.0000 </r>
       <r>    5.6932    1.0000 </r>
       <r>    5.7505    1.0000 </r>
       <r>    5.8392    1.0000 </r>
       <r>    5.8783    1.0000 </r>
       <r>    5.9079    1.0000 </r>
       <r>    5.9859    1.0000 </r>
       <r>    6.0833    1.0000 </r>
       <r>    6.1230    1.0000 </r>
       <r>    6.1795    1.0000 </r>
       <r>    6.2213    1.0000 </r>
       <r>    6.2552    1.0001 </r>
       <r>    6.3158    1.0004 </r>
       <r>    6.3521    1.0009 </r>
       <r>    6.4070    1.0030 </r>
       <r>    6.4639    1.0084 </r>
       <r>    6.5005    1.0143 </r>
       <r>    6.5500    1.0252 </r>
       <r>    6.6054    1.0351 </r>
       <r>    6.6369    1.0335 </r>
       <r>    6.7659    0.8563 </r>
       <r>    6.8314    0.6234 </r>
       <r>    6.8613    0.4988 </r>
       <r>    6.9681    0.1110 </r>
       <r>    6.9973    0.0467 </r>
       <r>    7.1059   -0.0355 </r>
       <r>    7.2362   -0.0117 </r>
       <r>    7.3651   -0.0011 </r>
       <r>    7.5111   -0.0000 </r>
       <r>    7.5796   -0.0000 </r>
       <r>    7.6483   -0.0000 </r>
       <r>    7.7504   -0.0000 </r>
       <r>    8.0165   -0.0000 </r>
       <r>    8.1756   -0.0000 </r>
       <r>    8.2370   -0.0000 </r>
       <r>    8.3508   -0.0000 </r>
       <r>    8.7035   -0.0000 </r>
       <r>    8.7873   -0.0000 </r>
       <r>    8.8800   -0.0000 </r>
       <r>    8.9395   -0.0000 </r>
       <r>    9.0052   -0.0000 </r>
       <r>    9.0961   -0.0000 </r>
       <r>    9.1634   -0.0000 </r>
      </set>
     </set>
    </set>
   </array>
  </eigenvalues>
  <separator name="orbital magnetization" >
   <v name="MAGDIPOLOUT">      0.00000000      0.00000000      0.00000000</v>
  </separator>
  <dos>
   <i name="efermi">      6.86097508 </i>
   <total>
    <array>
     <dimension dim="1">gridpoints</dimension>
     <dimension dim="2">spin</dimension>
     <field>energy</field>
     <field>total</field>
     <field>integrated</field>
     <set>
      <set comment="spin 1">
       <r>   -50.2175     0.0000     0.0000 </r>
       <r>   -50.0094     0.0000     0.0000 </r>
       <r>   -49.8012     0.0000     0.0000 </r>
       <r>   -49.5931     0.0000     0.0000 </r>
       <r>   -49.3850     0.0000     0.0000 </r>
       <r>   -49.1769    -0.0000    -0.0000 </r>
       <r>   -48.9687    -0.0000    -0.0000 </r>
       <r>   -48.7606    -0.0000    -0.0000 </r>
       <r>   -48.5525    -0.0000    -0.0000 </r>
       <r>   -48.3443    -0.0000    -0.0000 </r>
       <r>   -48.1362    -0.0000    -0.0000 </r>
       <r>   -47.9281    -0.0035    -0.0007 </r>
       <r>   -47.7200    -0.1775    -0.0377 </r>
       <r>   -47.5118     0.3811     0.0416 </r>
       <r>   -47.3037     6.9467     1.4875 </r>
       <r>   -47.0956    22.7264     6.2175 </r>
       <r>   -46.8874    25.6572    11.5575 </r>
       <r>   -46.6793     2.7281    12.1253 </r>
       <r>   -46.4712    -0.5768    12.0053 </r>
       <r>   -46.2630    -0.0253    12.0000 </r>
       <r>   -46.0549    -0.0001    12.0000 </r>
       <r>   -45.8468    -0.0000    12.0000 </r>
       <r>   -45.6387    -0.0000    12.0000 </r>
       <r>   -45.4305     0.0000    12.0000 </r>
       <r>   -45.2224     0.0000    12.0000 </r>
       <r>   -45.0143     0.0000    12.0000 </r>
       <r>   -44.8061     0.0000    12.0000 </r>
       <r>   -44.5980     0.0000    12.0000 </r>
       <r>   -44.3899     0.0000    12.0000 </r>
       <r>   -44.1817     0.0000    12.0000 </r>
       <r>   -43.9736     0.0000    12.0000 </r>
       <r>   -43.7655     0.0000    12.0000 </r>
       <r>   -43.5574     0.0000    12.0000 </r>
       <r>   -43.3492     0.0000    12.0000 </r>
       <r>   -43.1411     0.0000    12.0000 </r>
       <r>   -42.9330     0.0000    12.0000 </r>
       <r>   -42.7248     0.0000    12.0000 </r>
       <r>   -42.5167     0.0000    12.0000 </r>
       <r>   -42.3086     0.0000    12.0000 </r>
       <r>   -42.1004     0.0000    12.0000 </r>
       <r>   -41.8923     0.0000    12.0000 </r>
       <r>   -41.6842     0.0000    12.0000 </r>
       <r>   -41.4761     0.0000    12.0000 </r>
       <r>   -41.2679     0.0000    12.0000 </r>
       <r>   -41.0598     0.0000    12.0000 </r>
       <r>   -40.8517     0.0000    12.0000 </r>
       <r>   -40.6435     0.0000    12.0000 </r>
       <r>   -40.4354     0.0000    12.0000 </r>
       <r>   -40.2273     0.0000    12.0000 </r>
       <r>   -40.0191     0.0000    12.0000 </r>
       <r>   -39.8110     0.0000    12.0000 </r>
       <r>   -39.6029     0.0000    12.0000 </r>
       <r>   -39.3948     0.0000    12.0000 </r>
       <r>   -39.1866     0.0000    12.0000 </r>
       <r>   -38.9785     0.0000    12.0000 </r>
       <r>   -38.7704     0.0000    12.0000 </r>
       <r>   -38.5622     0.0000    12.0000 </r>
       <r>   -38.3541     0.0000    12.0000 </r>
       <r>   -38.1460     0.0000    12.0000 </r>
       <r>   -37.9378     0.0000    12.0000 </r>
       <r>   -37.7297     0.0000    12.0000 </r>
       <r>   -37.5216     0.0000    12.0000 </r>
       <r>   -37.3135     0.0000    12.0000 </r>
       <r>   -37.1053     0.0000    12.0000 </r>
       <r>   -36.8972     0.0000    12.0000 </r>
       <r>   -36.6891     0.0000    12.0000 </r>
       <r>   -36.4809     0.0000    12.0000 </r>
       <r>   -36.2728     0.0000    12.0000 </r>
       <r>   -36.0647     0.0000    12.0000 </r>
       <r>   -35.8565     0.0000    12.0000 </r>
       <r>   -35.6484     0.0000    12.0000 </r>
       <r>   -35.4403     0.0000    12.0000 </r>
       <r>   -35.2322     0.0000    12.0000 </r>
       <r>   -35.0240     0.0000    12.0000 </r>
       <r>   -34.8159     0.0000    12.0000 </r>
       <r>   -34.6078     0.0000    12.0000 </r>
       <r>   -34.3996     0.0000    12.0000 </r>
       <r>   -34.1915     0.0000    12.0000 </r>
       <r>   -33.9834     0.0000    12.0000 </r>
       <r>   -33.7752     0.0000    12.0000 </r>
       <r>   -33.5671     0.0000    12.0000 </r>
       <r>   -33.3590     0.0000    12.0000 </r>
       <r>   -33.1509     0.0000    12.0000 </r>
       <r>   -32.9427     0.0000    12.0000 </r>
       <r>   -32.7346     0.0000    12.0000 </r>
       <r>   -32.5265     0.0000    12.0000 </r>
       <r>   -32.3183     0.0000    12.0000 </r>
       <r>   -32.1102     0.0000    12.0000 </r>
       <r>   -31.9021     0.0000    12.0000 </r>
       <r>   -31.6939     0.0000    12.0000 </r>
       <r>   -31.4858     0.0000    12.0000 </r>
       <r>   -31.2777     0.0000    12.0000 </r>
       <r>   -31.0696     0.0000    12.0000 </r>
       <r>   -30.8614     0.0000    12.0000 </r>
       <r>   -30.6533     0.0000    12.0000 </r>
       <r>   -30.4452     0.0000    12.0000 </r>
       <r>   -30.2370     0.0000    12.0000 </r>
       <r>   -30.0289     0.0000    12.0000 </r>
       <r>   -29.8208     0.0000    12.0000 </r>
       <r>   -29.6126     0.0000    12.0000 </r>
       <r>   -29.4045     0.0000    12.0000 </r>
       <r>   -29.1964     0.0000    12.0000 </r>
       <r>   -28.9883     0.0000    12.0000 </r>
       <r>   -28.7801     0.0000    12.0000 </r>
       <r>   -28.5720     0.0000    12.0000 </r>
       <r>   -28.3639     0.0000    12.0000 </r>
       <r>   -28.1557     0.0000    12.0000 </r>
       <r>   -27.9476     0.0000    12.0000 </r>
       <r>   -27.7395     0.0000    12.0000 </r>
       <r>   -27.5314     0.0000    12.0000 </r>
       <r>   -27.3232     0.0000    12.0000 </r>
       <r>   -27.1151     0.0000    12.0000 </r>
       <r>   -26.9070     0.0000    12.0000 </r>
       <r>   -26.6988     0.0000    12.0000 </r>
       <r>   -26.4907     0.0000    12.0000 </r>
       <r>   -26.2826     0.0000    12.0000 </r>
       <r>   -26.0744     0.0000    12.0000 </r>
       <r>   -25.8663     0.0000    12.0000 </r>
       <r>   -25.6582    -0.0000    12.0000 </r>
       <r>   -25.4501    -0.0000    12.0000 </r>
       <r>   -25.2419    -0.0000    12.0000 </r>
       <r>   -25.0338    -0.0000    12.0000 </r>
       <r>   -24.8257    -0.0000    12.0000 </r>
       <r>   -24.6175    -0.0000    12.0000 </r>
       <r>   -24.4094    -0.0041    11.9991 </r>
       <r>   -24.2013    -0.1992    11.9577 </r>
       <r>   -23.9931     0.1448    11.9878 </r>
       <r>   -23.7850    10.7244    14.2199 </r>
       <r>   -23.5769    19.4932    18.2770 </r>
       <r>   -23.3688    32.2031    24.9795 </r>
       <r>   -23.1606    55.5987    36.5512 </r>
       <r>   -22.9525    39.3749    44.7463 </r>
       <r>   -22.7444    10.6102    46.9546 </r>
       <r>   -22.5362     4.1867    47.8260 </r>
       <r>   -22.3281     0.9652    48.0269 </r>
       <r>   -22.1200    -0.1171    48.0025 </r>
       <r>   -21.9118    -0.0119    48.0000 </r>
       <r>   -21.7037    -0.0001    48.0000 </r>
       <r>   -21.4956    -0.0000    48.0000 </r>
       <r>   -21.2875    -0.0000    48.0000 </r>
       <r>   -21.0793     0.0000    48.0000 </r>
       <r>   -20.8712     0.0000    48.0000 </r>
       <r>   -20.6631     0.0000    48.0000 </r>
       <r>   -20.4549     0.0000    48.0000 </r>
       <r>   -20.2468     0.0000    48.0000 </r>
       <r>   -20.0387     0.0000    48.0000 </r>
       <r>   -19.8305     0.0000    48.0000 </r>
       <r>   -19.6224     0.0000    48.0000 </r>
       <r>   -19.4143     0.0000    48.0000 </r>
       <r>   -19.2062     0.0000    48.0000 </r>
       <r>   -18.9980     0.0000    48.0000 </r>
       <r>   -18.7899     0.0000    48.0000 </r>
       <r>   -18.5818     0.0000    48.0000 </r>
       <r>   -18.3736     0.0000    48.0000 </r>
       <r>   -18.1655     0.0000    48.0000 </r>
       <r>   -17.9574     0.0000    48.0000 </r>
       <r>   -17.7492     0.0000    48.0000 </r>
       <r>   -17.5411     0.0000    48.0000 </r>
       <r>   -17.3330     0.0000    48.0000 </r>
       <r>   -17.1249     0.0000    48.0000 </r>
       <r>   -16.9167     0.0000    48.0000 </r>
       <r>   -16.7086     0.0000    48.0000 </r>
       <r>   -16.5005     0.0000    48.0000 </r>
       <r>   -16.2923     0.0000    48.0000 </r>
       <r>   -16.0842     0.0000    48.0000 </r>
       <r>   -15.8761     0.0000    48.0000 </r>
       <r>   -15.6679     0.0000    48.0000 </r>
       <r>   -15.4598     0.0000    48.0000 </r>
       <r>   -15.2517     0.0000    48.0000 </r>
       <r>   -15.0436     0.0000    48.0000 </r>
       <r>   -14.8354     0.0000    48.0000 </r>
       <r>   -14.6273     0.0000    48.0000 </r>
       <r>   -14.4192     0.0000    48.0000 </r>
       <r>   -14.2110     0.0000    48.0000 </r>
       <r>   -14.0029     0.0000    48.0000 </r>
       <r>   -13.7948     0.0000    48.0000 </r>
       <r>   -13.5866     0.0000    48.0000 </r>
       <r>   -13.3785     0.0000    48.0000 </r>
       <r>   -13.1704     0.0000    48.0000 </r>
       <r>   -12.9623     0.0000    48.0000 </r>
       <r>   -12.7541     0.0000    48.0000 </r>
       <r>   -12.5460     0.0000    48.0000 </r>
       <r>   -12.3379     0.0000    48.0000 </r>
       <r>   -12.1297     0.0000    48.0000 </r>
       <r>   -11.9216     0.0000    48.0000 </r>
       <r>   -11.7135     0.0000    48.0000 </r>
       <r>   -11.5053     0.0000    48.0000 </r>
       <r>   -11.2972     0.0000    48.0000 </r>
       <r>   -11.0891     0.0000    48.0000 </r>
       <r>   -10.8810     0.0000    48.0000 </r>
       <r>   -10.6728     0.0000    48.0000 </r>
       <r>   -10.4647     0.0000    48.0000 </r>
       <r>   -10.2566     0.0000    48.0000 </r>
       <r>   -10.0484     0.0000    48.0000 </r>
       <r>    -9.8403     0.0000    48.0000 </r>
       <r>    -9.6322     0.0000    48.0000 </r>
       <r>    -9.4241     0.0000    48.0000 </r>
       <r>    -9.2159     0.0000    48.0000 </r>
       <r>    -9.0078     0.0000    48.0000 </r>
       <r>    -8.7997     0.0000    48.0000 </r>
       <r>    -8.5915     0.0000    48.0000 </r>
       <r>    -8.3834     0.0000    48.0000 </r>
       <r>    -8.1753     0.0000    48.0000 </r>
       <r>    -7.9671     0.0000    48.0000 </r>
       <r>    -7.7590     0.0000    48.0000 </r>
       <r>    -7.5509     0.0000    48.0000 </r>
       <r>    -7.3428     0.0000    48.0000 </r>
       <r>    -7.1346     0.0000    48.0000 </r>
       <r>    -6.9265     0.0000    48.0000 </r>
       <r>    -6.7184     0.0000    48.0000 </r>
       <r>    -6.5102     0.0000    48.0000 </r>
       <r>    -6.3021     0.0000    48.0000 </r>
       <r>    -6.0940     0.0000    48.0000 </r>
       <r>    -5.8858     0.0000    48.0000 </r>
       <r>    -5.6777     0.0000    48.0000 </r>
       <r>    -5.4696     0.0000    48.0000 </r>
       <r>    -5.2615     0.0000    48.0000 </r>
       <r>    -5.0533     0.0000    48.0000 </r>
       <r>    -4.8452     0.0000    48.0000 </r>
       <r>    -4.6371     0.0000    48.0000 </r>
       <r>    -4.4289     0.0000    48.0000 </r>
       <r>    -4.2208     0.0000    48.0000 </r>
       <r>    -4.0127     0.0000    48.0000 </r>
       <r>    -3.8045     0.0000    48.0000 </r>
       <r>    -3.5964     0.0000    48.0000 </r>
       <r>    -3.3883     0.0000    48.0000 </r>
       <r>    -3.1802     0.0000    48.0000 </r>
       <r>    -2.9720     0.0000    48.0000 </r>
       <r>    -2.7639     0.0000    48.0000 </r>
       <r>    -2.5558     0.0000    48.0000 </r>
       <r>    -2.3476     0.0000    48.0000 </r>
       <r>    -2.1395    -0.0000    48.0000 </r>
       <r>    -1.9314    -0.0000    48.0000 </r>
       <r>    -1.7232    -0.0000    48.0000 </r>
       <r>    -1.5151    -0.0000    48.0000 </r>
       <r>    -1.3070    -0.0000    48.0000 </r>
       <r>    -1.0989    -0.0000    48.0000 </r>
       <r>    -0.8907    -0.0021    47.9996 </r>
       <r>    -0.6826    -0.0141    47.9966 </r>
       <r>    -0.4745     0.1448    48.0268 </r>
       <r>    -0.2663     0.6972    48.1719 </r>
       <r>    -0.0582     1.3712    48.4573 </r>
       <r>     0.1499     1.9021    48.8532 </r>
       <r>     0.3581     1.3987    49.1443 </r>
       <r>     0.5662     1.8950    49.5387 </r>
       <r>     0.7743     3.1988    50.2044 </r>
       <r>     0.9824     3.1728    50.8648 </r>
       <r>     1.1906     2.7781    51.4430 </r>
       <r>     1.3987     3.4507    52.1612 </r>
       <r>     1.6068     4.5465    53.1075 </r>
       <r>     1.8150     3.6617    53.8696 </r>
       <r>     2.0231     5.1731    54.9463 </r>
       <r>     2.2312     8.8093    56.7797 </r>
       <r>     2.4394    12.2784    59.3352 </r>
       <r>     2.6475    17.1875    62.9125 </r>
       <r>     2.8556    19.8126    67.0361 </r>
       <r>     3.0637    23.5443    71.9363 </r>
       <r>     3.2719    27.8881    77.7407 </r>
       <r>     3.4800    28.9729    83.7708 </r>
       <r>     3.6881    29.3344    89.8762 </r>
       <r>     3.8963    30.1085    96.1427 </r>
       <r>     4.1044    29.6451   102.3127 </r>
       <r>     4.3125    25.7417   107.6703 </r>
       <r>     4.5207    24.3547   112.7392 </r>
       <r>     4.7288    30.8605   119.1622 </r>
       <r>     4.9369    37.7349   127.0160 </r>
       <r>     5.1450    41.1275   135.5759 </r>
       <r>     5.3532    40.0116   143.9035 </r>
       <r>     5.5613    36.6097   151.5231 </r>
       <r>     5.7694    35.0510   158.8182 </r>
       <r>     5.9776    36.8153   166.4806 </r>
       <r>     6.1857    38.7816   174.5522 </r>
       <r>     6.3938    40.0241   182.8824 </r>
       <r>     6.6020    39.0104   191.0016 </r>
       <r>     6.8101    35.1896   198.3256 </r>
       <r>     7.0182    30.9506   204.7674 </r>
       <r>     7.2263    24.2646   209.8176 </r>
       <r>     7.4345    17.4436   213.4481 </r>
       <r>     7.6426    16.0276   216.7839 </r>
       <r>     7.8507    14.8885   219.8827 </r>
       <r>     8.0589    15.1320   223.0321 </r>
       <r>     8.2670    18.1910   226.8182 </r>
       <r>     8.4751    20.0614   230.9936 </r>
       <r>     8.6833    17.9497   234.7294 </r>
       <r>     8.8914    12.9510   237.4249 </r>
       <r>     9.0995     7.9033   239.0698 </r>
       <r>     9.3076     3.9868   239.8996 </r>
       <r>     9.5158     0.5629   240.0167 </r>
       <r>     9.7239    -0.0712   240.0019 </r>
       <r>     9.9320    -0.0091   240.0000 </r>
       <r>    10.1402    -0.0001   240.0000 </r>
       <r>    10.3483    -0.0000   240.0000 </r>
       <r>    10.5564    -0.0000   240.0000 </r>
       <r>    10.7645    -0.0000   240.0000 </r>
       <r>    10.9727     0.0000   240.0000 </r>
       <r>    11.1808     0.0000   240.0000 </r>
       <r>    11.3889     0.0000   240.0000 </r>
       <r>    11.5971     0.0000   240.0000 </r>
       <r>    11.8052     0.0000   240.0000 </r>
       <r>    12.0133     0.0000   240.0000 </r>
       <r>    12.2215     0.0000   240.0000 </r>
      </set>
     </set>
    </array>
   </total>
  </dos>
 </calculation>
 <structure name="finalpos" >
  <crystal>
   <varray name="basis" >
    <v>      -3.16637085      -3.15984916      -3.14433973 </v>
    <v>       1.59956365       1.65876540      -7.95621461 </v>
    <v>       7.91537314      -7.93531492      -1.53590419 </v>
   </varray>
   <i name="volume">    480.40454253 </i>
   <varray name="rec_basis" >
    <v>      -0.13672388      -0.12597639      -0.05375217 </v>
    <v>       0.04183578       0.06193086      -0.10436524 </v>
    <v>       0.06318874      -0.06290927      -0.00041192 </v>
   </varray>
  </crystal>
  <varray name="positions" >
   <v>       0.94723231       0.93131528       0.39809558 </v>
   <v>       0.63507342       0.27086800       0.40147446 </v>
   <v>       0.50121325       0.00107285       0.00016422 </v>
   <v>      -0.00046810       0.00160188       0.00401560 </v>
   <v>       0.10059206       0.20317429       0.79655746 </v>
   <v>       0.03915822       0.06566855       0.59456764 </v>
   <v>       0.90726270       0.79620909       0.20290890 </v>
   <v>       0.79727827       0.60227323       0.39786870 </v>
   <v>       0.73144411       0.46752532       0.20112423 </v>
   <v>       0.66429006       0.33900794      -0.00179918 </v>
   <v>       0.37249792       0.73195294       0.59461861 </v>
   <v>       0.13866313       0.26479478       0.39932884 </v>
   <v>       0.83341921       0.66488935       0.00329610 </v>
   <v>       0.93138676       0.87118509       0.79833559 </v>
   <v>       0.55895674       0.12828750       0.20545049 </v>
   <v>       0.40754412       0.80013655       0.20825419 </v>
   <v>       0.43933268       0.85760974       0.79431535 </v>
   <v>       0.29583282       0.60016147       0.40343038 </v>
   <v>       0.86850241       0.72804226       0.60019725 </v>
   <v>       0.17402974       0.33514486       0.00295793 </v>
   <v>       0.26949274       0.53186593       0.79847021 </v>
   <v>       0.19968717       0.39381114       0.59396373 </v>
   <v>       0.04992837       0.14890214       0.20646730 </v>
   <v>       0.76931084       0.52825425       0.79924722 </v>
   <v>       0.69424454       0.40805374       0.60106316 </v>
   <v>       0.59847312       0.20218737       0.79657244 </v>
   <v>       0.54122223       0.06480539       0.59680042 </v>
   <v>       0.33591120       0.65874699       0.00114490 </v>
   <v>       0.23182129       0.46911874       0.20110828 </v>
  </varray>
 </structure>
</modeling>
