SQS with 1 vacancy for VFE and VRV      
           1
    -3.190000   -3.190000   -3.190000
     1.595000    1.595000   -7.975000
     7.975000   -7.975000   -1.595000
   Nb   Mo   Ta   Ti   W 
   6   6   6   5   6
Direct configuration=     1
   0.96666667  0.93333333  0.40000000
   0.63333333  0.26666667  0.40000000
   0.50000000  0.00000000  0.00000000
   0.00000000  0.00000000  0.00000000
   0.10000000  0.20000000  0.80000000
   0.03333333  0.06666667  0.60000000
   0.90000000  0.80000000  0.20000000
   0.80000000  0.60000000  0.40000000
   0.73333333  0.46666667  0.20000000
   0.66666667  0.33333333  0.00000000
   0.36666667  0.73333333  0.60000000
   0.13333333  0.26666667  0.40000000
   0.83333333  0.66666667  0.00000000
   0.93333333  0.86666667  0.80000000
   0.56666667  0.13333333  0.20000000
   0.40000000  0.80000000  0.20000000
   0.43333333  0.86666667  0.80000000
   0.30000000  0.60000000  0.40000000
   0.86666667  0.73333333  0.60000000
   0.16666667  0.33333333  0.00000000
   0.26666667  0.53333333  0.80000000
   0.20000000  0.40000000  0.60000000
   0.06666667  0.13333333  0.20000000
   0.76666667  0.53333333  0.80000000
   0.70000000  0.40000000  0.60000000
   0.60000000  0.20000000  0.80000000
   0.53333333  0.06666667  0.60000000
   0.33333333  0.66666667  0.00000000
   0.23333333  0.46666667  0.20000000
SQS with 1 vacancy for VFE and VRV      
           1
    -3.144664   -3.141737   -3.133095
     1.576529    1.597691   -7.863757
     7.860840   -7.867207   -1.552863
   Nb   Mo   Ta   Ti   W 
   6   6   6   5   6
Direct configuration=     2
   0.96521572  0.93230387  0.39859474
   0.63394771  0.26798437  0.40095263
   0.49953409  0.00197685  0.00026056
  -0.00106722  0.00042439  0.00201721
   0.09864095  0.20366476  0.79867597
   0.03482115  0.06744939  0.59840986
   0.90411759  0.79764918  0.20152447
   0.79945872  0.59976960  0.39876327
   0.73336821  0.46657699  0.19966987
   0.66460454  0.33743386 -0.00130064
   0.36842008  0.73249831  0.59861123
   0.13521746  0.26616621  0.39959592
   0.83326192  0.66408777  0.00227937
   0.93084514  0.86915365  0.79880090
   0.56574473  0.13078885  0.20118971
   0.40442738  0.79716904  0.20207815
   0.43742990  0.86146704  0.79690957
   0.29900540  0.59959472  0.40163798
   0.86508145  0.73239416  0.60007648
   0.16898524  0.33385029  0.00125665
   0.26850477  0.53344543  0.80014170
   0.20107982  0.39735575  0.59820815
   0.06098412  0.13929537  0.20151203
   0.76730835  0.53002395  0.80001394
   0.69647873  0.40549474  0.60140592
   0.59753503  0.20230723  0.79883225
   0.53428766  0.06699996  0.59950570
   0.33467909  0.66115835  0.00046827
   0.23141561  0.46818258  0.19990813
SQS with 1 vacancy for VFE and VRV      
           1
    -3.163189   -3.161458   -3.156347
     1.584077    1.596591   -7.909213
     7.907488   -7.911253   -1.570081
   Nb   Mo   Ta   Ti   W 
   6   6   6   5   6
Direct configuration=     3
   0.96581945  0.93273178  0.39917775
   0.63369069  0.26743804  0.40055709
   0.49972436  0.00115900  0.00015152
  -0.00062524  0.00024724  0.00118115
   0.09919936  0.20215065  0.79922269
   0.03420278  0.06712657  0.59906824
   0.90241258  0.79861835  0.20089374
   0.79968377  0.59986640  0.39927592
   0.73335390  0.46661441  0.19980672
   0.66545401  0.33573977 -0.00076380
   0.36769396  0.73284439  0.59918704
   0.13443650  0.26637284  0.39976350
   0.83329528  0.66515233  0.00133627
   0.93187384  0.86812713  0.79929660
   0.56613104  0.13184064  0.20069820
   0.40259451  0.79833614  0.20121822
   0.43573839  0.86361938  0.79819278
   0.29941855  0.59976114  0.40095953
   0.86574061  0.73278328  0.60004544
   0.16802231  0.33363416  0.00073544
   0.26774192  0.53339812  0.80008277
   0.20063599  0.39845097  0.59895206
   0.06333266  0.13682992  0.20088259
   0.76704716  0.53139268  0.80000996
   0.69793124  0.40322177  0.60082054
   0.59855437  0.20135502  0.79931506
   0.53389123  0.06686217  0.59971027
   0.33412909  0.66343597  0.00027719
   0.23220900  0.46755640  0.19994550
SQS with 1 vacancy for VFE and VRV      
           1
    -3.172019   -3.166771   -3.152419
     1.592984    1.632466   -7.937109
     7.927931   -7.940554   -1.550460
   Nb   Mo   Ta   Ti   W 
   6   6   6   5   6
Direct configuration=     4
   0.96359726  0.93166894  0.39755218
   0.63451261  0.26873191  0.40151213
   0.49916776  0.00300237  0.00032784
  -0.00153914  0.00089214  0.00339889
   0.09808945  0.20578344  0.79771970
   0.03610879  0.06796965  0.59692687
   0.90686832  0.79601854  0.20282109
   0.79849247  0.60052536  0.39794732
   0.73352234  0.46596025  0.19971484
   0.66318969  0.34005376 -0.00210564
   0.36984472  0.73212505  0.59708843
   0.13712959  0.26508732  0.39934740
   0.83321887  0.66276839  0.00368544
   0.92973154  0.87087359  0.79800325
   0.56454366  0.12833642  0.20271612
   0.40748347  0.79601583  0.20422873
   0.43966150  0.85801517  0.79485825
   0.29824847  0.59931049  0.40315722
   0.86401189  0.73156736  0.59987276
   0.17094001  0.33414645  0.00224036
   0.26951321  0.53330536  0.80011096
   0.20141199  0.39572758  0.59673262
   0.05664268  0.14406410  0.20296641
   0.76807092  0.52799217  0.79985374
   0.69403603  0.40945266  0.60214857
   0.59569544  0.20404792  0.79801993
   0.53530301  0.06699333  0.59853214
   0.33542743  0.65741223  0.00064436
   0.23040938  0.46881889  0.19997808
SQS with 1 vacancy for VFE and VRV      
           1
    -3.172872   -3.167284   -3.152039
     1.593845    1.635932   -7.939805
     7.929906   -7.943385   -1.548565
   Nb   Mo   Ta   Ti   W 
   6   6   6   5   6
Direct configuration=     5
   0.96338246  0.93156610  0.39739539
   0.63459244  0.26885660  0.40160434
   0.49911483  0.00317947  0.00034511
  -0.00162699  0.00095465  0.00361257
   0.09798387  0.20613193  0.79757550
   0.03629295  0.06805024  0.59672081
   0.90729706  0.79576979  0.20300639
   0.79837781  0.60058816  0.39781944
   0.73353832  0.46589739  0.19970589
   0.66297303  0.34046762 -0.00223422
   0.37005184  0.73205555  0.59688623
   0.13738882  0.26496397  0.39930717
   0.83321055  0.66254001  0.00391130
   0.92952601  0.87113686  0.79787908
   0.56438914  0.12800015  0.20290987
   0.40795412  0.79579429  0.20451842
   0.44003756  0.85747615  0.79453626
   0.29813545  0.59926771  0.40336879
   0.86384464  0.73145030  0.59985590
   0.17122167  0.33419643  0.00238545
   0.26968402  0.53329664  0.80011369
   0.20148569  0.39546535  0.59651843
   0.05600039  0.14475906  0.20316815
   0.76816827  0.52766551  0.79983816
   0.69366289  0.41005130  0.60227741
   0.59542076  0.20430597  0.79789557
   0.53543923  0.06700574  0.59841872
   0.33555019  0.65683371  0.00067877
   0.23023632  0.46894001  0.19998138
SQS with 1 vacancy for VFE and VRV      
           1
    -3.174128   -3.166901   -3.154019
     1.596272    1.643304   -7.954207
     7.934377   -7.947009   -1.546272
   Nb   Mo   Ta   Ti   W 
   6   6   6   5   6
Direct configuration=     6
   0.96189409  0.93149404  0.39718441
   0.63514944  0.26906623  0.40156363
   0.49983707  0.00202849  0.00001031
  -0.00135655  0.00090437  0.00356756
   0.09847472  0.20501377  0.79742069
   0.03625296  0.06805651  0.59613941
   0.90769353  0.79542021  0.20316770
   0.79809365  0.60137478  0.39770474
   0.73286900  0.46557059  0.20041846
   0.66306516  0.33958178 -0.00197623
   0.37020969  0.73208587  0.59618783
   0.13794130  0.26471431  0.39924509
   0.83259663  0.66404871  0.00345097
   0.92969535  0.87160335  0.79823063
   0.56299715  0.12726391  0.20389559
   0.40865908  0.79633450  0.20547868
   0.43887002  0.85791198  0.79463995
   0.29790900  0.59910881  0.40351687
   0.86429532  0.73119676  0.59956951
   0.17208460  0.33432579  0.00261040
   0.26902251  0.53298744  0.79979015
   0.20085939  0.39528683  0.59583858
   0.05446981  0.14625143  0.20398422
   0.76870189  0.52875768  0.79970539
   0.69364691  0.40991577  0.60172598
   0.59600829  0.20374707  0.79754866
   0.53678461  0.06693570  0.59791725
   0.33519536  0.65762966  0.00080067
   0.23141334  0.46805034  0.20066290
SQS with 1 vacancy for VFE and VRV      
           1
    -3.174946   -3.166651   -3.155310
     1.597854    1.648110   -7.963596
     7.937291   -7.949371   -1.544778
   Nb   Mo   Ta   Ti   W 
   6   6   6   5   6
Direct configuration=     7
   0.96092403  0.93144730  0.39704683
   0.63551251  0.26920253  0.40153718
   0.50030734  0.00127962 -0.00020801
  -0.00118032  0.00087162  0.00353825
   0.09879422  0.20428631  0.79731963
   0.03622680  0.06806050  0.59576061
   0.90795183  0.79519278  0.20327276
   0.79790869  0.60188650  0.39763015
   0.73243282  0.46535820  0.20088261
   0.66312497  0.33900556 -0.00180831
   0.37031245  0.73210545  0.59573281
   0.13830126  0.26455182  0.39920463
   0.83219693  0.66503013  0.00315131
   0.92980592  0.87190685  0.79845978
   0.56208991  0.12678531  0.20453758
   0.40911885  0.79668601  0.20610448
   0.43810928  0.85819564  0.79470752
   0.29776139  0.59900550  0.40361329
   0.86458891  0.73103172  0.59938290
   0.17264706  0.33440987  0.00275705
   0.26859123  0.53278632  0.79957924
   0.20045105  0.39517065  0.59539555
   0.05347293  0.14722257  0.20451611
   0.76904999  0.52946807  0.79961914
   0.69363636  0.40982751  0.60136667
   0.59639095  0.20338336  0.79732257
   0.53766131  0.06688989  0.59759060
   0.33496439  0.65814750  0.00088022
   0.23218026  0.46747158  0.20110683
SQS with 1 vacancy for VFE and VRV      
           1
    -3.166171   -3.156624   -3.146504
     1.594576    1.648564   -7.948210
     7.916667   -7.928154   -1.537819
   Nb   Mo   Ta   Ti   W 
   6   6   6   5   6
Direct configuration=     8
   0.95928451  0.93136735  0.39693976
   0.63596100  0.26940522  0.40155782
   0.50083641  0.00049820 -0.00033315
  -0.00090742  0.00094862  0.00366280
   0.09902843  0.20359570  0.79713977
   0.03655580  0.06780661  0.59530253
   0.90830138  0.79490383  0.20331716
   0.79765391  0.60248694  0.39758849
   0.73192548  0.46546549  0.20132454
   0.66337204  0.33841091 -0.00163215
   0.37051381  0.73214711  0.59522113
   0.13883467  0.26443432  0.39920145
   0.83203795  0.66565025  0.00294678
   0.92969764  0.87226907  0.79852207
   0.56086306  0.12613056  0.20536390
   0.40943651  0.79722966  0.20692548
   0.43752612  0.85854171  0.79458631
   0.29744365  0.59898219  0.40357319
   0.86511557  0.73081767  0.59922749
   0.17330897  0.33467327  0.00292813
   0.26822012  0.53255495  0.79926313
   0.19982826  0.39492809  0.59480082
   0.05195928  0.14839845  0.20527013
   0.76916894  0.53005839  0.79944916
   0.69372721  0.40963331  0.60100492
   0.59703965  0.20295598  0.79699705
   0.53878272  0.06673575  0.59717481
   0.33493064  0.65864744  0.00108754
   0.23288701  0.46698961  0.20158897
SQS with 1 vacancy for VFE and VRV      
           1
    -3.168407   -3.159179   -3.148748
     1.595411    1.648448   -7.952129
     7.921921   -7.933559   -1.539592
   Nb   Mo   Ta   Ti   W 
   6   6   6   5   6
Direct configuration=     9
   0.95970343  0.93138773  0.39696714
   0.63584639  0.26935350  0.40155253
   0.50070133  0.00069764 -0.00030115
  -0.00097717  0.00092897  0.00363098
   0.09896867  0.20377195  0.79718575
   0.03647179  0.06787144  0.59541954
   0.90821210  0.79497757  0.20330583
   0.79771895  0.60233371  0.39759910
   0.73205507  0.46543807  0.20121166
   0.66330897  0.33856265 -0.00167712
   0.37046239  0.73213652  0.59535182
   0.13869840  0.26446432  0.39920226
   0.83207851  0.66549201  0.00299899
   0.92972526  0.87217663  0.79850614
   0.56117655  0.12629757  0.20515290
   0.40935524  0.79709087  0.20671573
   0.43767509  0.85845340  0.79461726
   0.29752484  0.59898813  0.40358344
   0.86498104  0.73087232  0.59926719
   0.17313981  0.33460605  0.00288440
   0.26831498  0.53261401  0.79934390
   0.19998745  0.39499002  0.59495276
   0.05234585  0.14809830  0.20507749
   0.76913850  0.52990776  0.79949254
   0.69370404  0.40968290  0.60109733
   0.59687397  0.20306508  0.79708021
   0.53849624  0.06677513  0.59728100
   0.33493920  0.65851984  0.00103455
   0.23270646  0.46711259  0.20146583
SQS with 1 vacancy for VFE and VRV      
           1
    -3.168265   -3.159056   -3.147949
     1.595708    1.649743   -7.951845
     7.922387   -7.934608   -1.538665
   Nb   Mo   Ta   Ti   W 
   6   6   6   5   6
Direct configuration=    10
   0.95867503  0.93137096  0.39702908
   0.63595804  0.26944307  0.40160369
   0.50075363  0.00065246 -0.00018881
  -0.00084798  0.00110843  0.00384214
   0.09894056  0.20379428  0.79707073
   0.03701882  0.06752929  0.59525053
   0.90829986  0.79493547  0.20323480
   0.79755685  0.60254723  0.39765761
   0.73199009  0.46576325  0.20121399
   0.66356484  0.33848822 -0.00163865
   0.37060627  0.73223325  0.59518462
   0.13897928  0.26442345  0.39926515
   0.83233697  0.66509076  0.00310742
   0.92956985  0.87218516  0.79830230
   0.56072432  0.12602843  0.20548771
   0.40916622  0.79745651  0.20706467
   0.43784943  0.85855507  0.79439787
   0.29733618  0.59907070  0.40345728
   0.86531918  0.73078143  0.59927970
   0.17329913  0.33479347  0.00293853
   0.26838021  0.53256443  0.79919077
   0.19969697  0.39486015  0.59472582
   0.05166633  0.14833496  0.20538769
   0.76890961  0.52978192  0.79937063
   0.69381308  0.40953676  0.60106050
   0.59714830  0.20300535  0.79696205
   0.53882029  0.06658533  0.59706310
   0.33515807  0.65852522  0.00115630
   0.23264391  0.46722166  0.20152278
SQS with 1 vacancy for VFE and VRV      
           1
    -3.167872   -3.158714   -3.145724
     1.596533    1.653349   -7.951053
     7.923686   -7.937530   -1.536081
   Nb   Mo   Ta   Ti   W 
   6   6   6   5   6
Direct configuration=    11
   0.95581031  0.93132407  0.39720158
   0.63626913  0.26969259  0.40174619
   0.50089931  0.00052668  0.00012406
  -0.00048803  0.00160837  0.00443027
   0.09886226  0.20385640  0.79675041
   0.03854242  0.06657636  0.59477973
   0.90854431  0.79481822  0.20303698
   0.79710543  0.60314193  0.39782060
   0.73180927  0.46666891  0.20122053
   0.66427754  0.33828098 -0.00153152
   0.37100712  0.73250265  0.59471897
   0.13976169  0.26430970  0.39944031
   0.83305668  0.66397329  0.00340936
   0.92913697  0.87220880  0.79773458
   0.55946438  0.12527887  0.20642015
   0.40863991  0.79847499  0.20803657
   0.43833514  0.85883821  0.79378687
   0.29681070  0.59930058  0.40310591
   0.86626106  0.73052837  0.59931452
   0.17374304  0.33531553  0.00308931
   0.26856186  0.53242632  0.79876429
   0.19888774  0.39449829  0.59409375
   0.04977357  0.14899410  0.20625167
   0.76827196  0.52943132  0.79903109
   0.69411675  0.40912975  0.60095789
   0.59791244  0.20283900  0.79663294
   0.53972287  0.06605666  0.59645619
   0.33576776  0.65854027  0.00149540
   0.23246976  0.46752544  0.20168140
SQS with 1 vacancy for VFE and VRV      
           1
    -3.168044   -3.160097   -3.146571
     1.597356    1.653303   -7.953163
     7.923594   -7.939250   -1.537731
   Nb   Mo   Ta   Ti   W 
   6   6   6   5   6
Direct configuration=    12
   0.95510487  0.93125407  0.39730172
   0.63613324  0.26993248  0.40166136
   0.50118913  0.00060446  0.00009616
  -0.00072105  0.00150861  0.00427538
   0.09925136  0.20388987  0.79675548
   0.03846517  0.06656826  0.59476408
   0.90825912  0.79505544  0.20308375
   0.79715369  0.60299118  0.39783941
   0.73188783  0.46650437  0.20127907
   0.66411274  0.33842868 -0.00149772
   0.37121828  0.73239318  0.59471405
   0.13950113  0.26435833  0.39944056
   0.83316168  0.66438259  0.00322822
   0.92958881  0.87211193  0.79797517
   0.55949563  0.12572852  0.20635665
   0.40848628  0.79866418  0.20797918
   0.43815111  0.85856647  0.79399830
   0.29674153  0.59934849  0.40330365
   0.86648440  0.73018140  0.59935000
   0.17377902  0.33515546  0.00307038
   0.26872360  0.53242310  0.79871660
   0.19924277  0.39447343  0.59411488
   0.04990750  0.14889131  0.20621681
   0.76840281  0.52926988  0.79903634
   0.69385643  0.40904175  0.60098676
   0.59764686  0.20285237  0.79665841
   0.53989997  0.06594062  0.59647085
   0.33577649  0.65838527  0.00129021
   0.23243295  0.46776094  0.20153427
SQS with 1 vacancy for VFE and VRV      
           1
    -3.168177   -3.161166   -3.147225
     1.597992    1.653268   -7.954792
     7.923522   -7.940579   -1.539005
   Nb   Mo   Ta   Ti   W 
   6   6   6   5   6
Direct configuration=    13
   0.95456014  0.93120002  0.39737909
   0.63602833  0.27011772  0.40159585
   0.50141293  0.00066452  0.00007460
  -0.00090094  0.00143159  0.00415579
   0.09955179  0.20391572  0.79675938
   0.03840552  0.06656200  0.59475199
   0.90803890  0.79523861  0.20311988
   0.79719095  0.60287478  0.39785394
   0.73194848  0.46637732  0.20132428
   0.66398548  0.33854271 -0.00147161
   0.37138134  0.73230866  0.59471023
   0.13929993  0.26439588  0.39944078
   0.83324280  0.66469864  0.00308831
   0.92993764  0.87203713  0.79816094
   0.55951978  0.12607572  0.20630759
   0.40836766  0.79881026  0.20793485
   0.43800896  0.85835664  0.79416160
   0.29668808  0.59938547  0.40345635
   0.86665684  0.72991350  0.59937741
   0.17380681  0.33503187  0.00305577
   0.26884849  0.53242062  0.79867976
   0.19951690  0.39445423  0.59413118
   0.05001092  0.14881194  0.20618989
   0.76850385  0.52914522  0.79904040
   0.69365542  0.40897380  0.60100907
   0.59744179  0.20286270  0.79667810
   0.54003671  0.06585102  0.59648217
   0.33578328  0.65826560  0.00113175
   0.23240456  0.46794278  0.20142065
SQS with 1 vacancy for VFE and VRV      
           1
    -3.166263   -3.160346   -3.145608
     1.597689    1.652936   -7.951468
     7.916926   -7.936131   -1.538792
   Nb   Mo   Ta   Ti   W 
   6   6   6   5   6
Direct configuration=    14
   0.95328184  0.93114390  0.39753799
   0.63578520  0.27036936  0.40156371
   0.50136536  0.00086275  0.00008532
  -0.00087093  0.00142025  0.00406184
   0.09976853  0.20390738  0.79674855
   0.03843264  0.06644769  0.59477648
   0.90777625  0.79545560  0.20312665
   0.79725801  0.60267524  0.39787308
   0.73194566  0.46653265  0.20124389
   0.66392738  0.33873997 -0.00150337
   0.37165607  0.73223078  0.59472100
   0.13906097  0.26449508  0.39939109
   0.83325901  0.66481289  0.00305766
   0.93016445  0.87188836  0.79826451
   0.55942847  0.12664044  0.20614738
   0.40817828  0.79901607  0.20790400
   0.43840105  0.85804651  0.79427101
   0.29647873  0.59961762  0.40348678
   0.86693660  0.72950903  0.59952078
   0.17382831  0.33489067  0.00305875
   0.26898618  0.53234825  0.79863948
   0.19967939  0.39435847  0.59417349
   0.05017761  0.14870725  0.20615531
   0.76870670  0.52891959  0.79906098
   0.69367654  0.40880974  0.60106089
   0.59758398  0.20274400  0.79669952
   0.54029066  0.06559315  0.59654647
   0.33593649  0.65821057  0.00105051
   0.23223390  0.46827341  0.20127627
SQS with 1 vacancy for VFE and VRV      
           1
    -3.166151   -3.160298   -3.145513
     1.597671    1.652917   -7.951273
     7.916539   -7.935870   -1.538779
   Nb   Mo   Ta   Ti   W 
   6   6   6   5   6
Direct configuration=    15
   0.95320691  0.93114061  0.39754731
   0.63577095  0.27038411  0.40156183
   0.50136257  0.00087437  0.00008595
  -0.00086917  0.00141959  0.00405633
   0.09978123  0.20390689  0.79674791
   0.03843423  0.06644099  0.59477791
   0.90776085  0.79546832  0.20312704
   0.79726194  0.60266355  0.39787420
   0.73194549  0.46654176  0.20123918
   0.66392397  0.33875154 -0.00150523
   0.37167218  0.73222622  0.59472163
   0.13904697  0.26450089  0.39938817
   0.83325997  0.66481958  0.00305586
   0.93017774  0.87187964  0.79827058
   0.55942313  0.12667354  0.20613798
   0.40816718  0.79902813  0.20790219
   0.43842403  0.85802833  0.79427742
   0.29646646  0.59963122  0.40348857
   0.86695299  0.72948532  0.59952919
   0.17382957  0.33488240  0.00305893
   0.26899425  0.53234400  0.79863712
   0.19968891  0.39435286  0.59417597
   0.05018738  0.14870112  0.20615328
   0.76871859  0.52890636  0.79906218
   0.69367778  0.40880013  0.60106393
   0.59759232  0.20273704  0.79670078
   0.54030554  0.06557804  0.59655024
   0.33594547  0.65820734  0.00104575
   0.23222390  0.46829279  0.20126781
SQS with 1 vacancy for VFE and VRV      
           1
    -3.166734   -3.161089   -3.145878
     1.598550    1.654101   -7.953560
     7.916583   -7.936385   -1.539014
   Nb   Mo   Ta   Ti   W 
   6   6   6   5   6
Direct configuration=    16
   0.95198064  0.93116223  0.39768936
   0.63556837  0.27050435  0.40157405
   0.50113513  0.00099991  0.00012176
  -0.00066363  0.00148802  0.00404968
   0.09982934  0.20381872  0.79670785
   0.03857697  0.06628581  0.59479446
   0.90759925  0.79561711  0.20308362
   0.79728802  0.60253402  0.39788625
   0.73186381  0.46685320  0.20111749
   0.66399377  0.33886758 -0.00156952
   0.37187092  0.73220076  0.59472392
   0.13893152  0.26458894  0.39936169
   0.83322694  0.66473838  0.00314332
   0.93029575  0.87173070  0.79824917
   0.55925008  0.12709686  0.20597733
   0.40804227  0.79924629  0.20792802
   0.43887003  0.85784878  0.79428055
   0.29628024  0.59983101  0.40342518
   0.86724350  0.72914884  0.59970880
   0.17384461  0.33484407  0.00303966
   0.26907447  0.53223826  0.79858730
   0.19967543  0.39424269  0.59418961
   0.05026123  0.14863950  0.20616972
   0.76890189  0.52873779  0.79909158
   0.69389111  0.40861249  0.60108562
   0.59790750  0.20260135  0.79670348
   0.54047226  0.06535058  0.59660210
   0.33606904  0.65828877  0.00106422
   0.23205288  0.46854966  0.20121373
SQS with 1 vacancy for VFE and VRV      
           1
    -3.168483   -3.163462   -3.146974
     1.601189    1.657652   -7.960418
     7.916716   -7.937929   -1.539717
   Nb   Mo   Ta   Ti   W 
   6   6   6   5   6
Direct configuration=    17
   0.94830256  0.93122696  0.39811554
   0.63496079  0.27086492  0.40161070
   0.50045299  0.00137639  0.00022918
  -0.00004710  0.00169326  0.00402973
   0.09997360  0.20355430  0.79658769
   0.03900505  0.06582045  0.59484408
   0.90711462  0.79606332  0.20295335
   0.79736617  0.60214558  0.39792239
   0.73161895  0.46778720  0.20075248
   0.66420317  0.33921562 -0.00176238
   0.37246703  0.73212445  0.59473080
   0.13858529  0.26485297  0.39928225
   0.83312784  0.66449485  0.00340568
   0.93064967  0.87128405  0.79818496
   0.55873126  0.12836636  0.20549542
   0.40766769  0.79990051  0.20800551
   0.44020767  0.85731035  0.79428991
   0.29572178  0.60043016  0.40323502
   0.86811464  0.72813978  0.60024758
   0.17388972  0.33472914  0.00298188
   0.26931505  0.53192116  0.79843785
   0.19963494  0.39391228  0.59423053
   0.05048273  0.14845470  0.20621905
   0.76945162  0.52823227  0.79917975
   0.69453089  0.40804980  0.60115069
   0.59885279  0.20219445  0.79671157
   0.54097219  0.06466847  0.59675764
   0.33643970  0.65853297  0.00111963
   0.23154003  0.46931999  0.20105152
SQS with 1 vacancy for VFE and VRV      
           1
    -3.163774   -3.157716   -3.141843
     1.598217    1.656801   -7.949013
     7.906796   -7.927355   -1.535198
   Nb   Mo   Ta   Ti   W 
   6   6   6   5   6
Direct configuration=    18
   0.94770291  0.93129255  0.39807856
   0.63504699  0.27087700  0.40150463
   0.50102721  0.00116114  0.00018876
  -0.00039646  0.00160466  0.00401542
   0.10041337  0.20329196  0.79657913
   0.03904223  0.06575416  0.59466472
   0.90721595  0.79617114  0.20292534
   0.79731007  0.60220127  0.39787724
   0.73152576  0.46755129  0.20101447
   0.66424294  0.33908520 -0.00178598
   0.37249808  0.73199730  0.59465518
   0.13858718  0.26483039  0.39927488
   0.83335260  0.66479713  0.00332125
   0.93121167  0.87123833  0.79830499
   0.55887059  0.12834952  0.20547733
   0.40754876  0.80005485  0.20812090
   0.43954464  0.85750695  0.79432199
   0.29584961  0.60026189  0.40337425
   0.86834587  0.72807714  0.60020778
   0.17397863  0.33497759  0.00298945
   0.26948499  0.53188617  0.79846174
   0.19967043  0.39384807  0.59405370
   0.05011338  0.14873142  0.20638816
   0.76934023  0.52823582  0.79922380
   0.69431565  0.40807913  0.60109889
   0.59856510  0.20219044  0.79662378
   0.54115788  0.06475543  0.59680854
   0.33604231  0.65866710  0.00114896
   0.23172476  0.46919162  0.20108211
SQS with 1 vacancy for VFE and VRV      
           1
    -3.166183   -3.160656   -3.144468
     1.599738    1.657237   -7.954848
     7.911871   -7.932765   -1.537511
   Nb   Mo   Ta   Ti   W 
   6   6   6   5   6
Direct configuration=    19
   0.94801021  0.93125895  0.39809752
   0.63500283  0.27087082  0.40155897
   0.50073296  0.00127143  0.00020947
  -0.00021741  0.00165005  0.00402277
   0.10018802  0.20342637  0.79658352
   0.03902320  0.06578814  0.59475661
   0.90716402  0.79611591  0.20293968
   0.79733882  0.60217274  0.39790037
   0.73157350  0.46767212  0.20088027
   0.66422257  0.33915202 -0.00177388
   0.37248219  0.73206245  0.59469393
   0.13858621  0.26484196  0.39927866
   0.83323741  0.66464228  0.00336447
   0.93092365  0.87126175  0.79824348
   0.55879919  0.12835815  0.20548659
   0.40760969  0.79997576  0.20806178
   0.43988441  0.85740621  0.79430557
   0.29578409  0.60034808  0.40330293
   0.86822738  0.72810924  0.60022817
   0.17393305  0.33485030  0.00298555
   0.26939790  0.53190409  0.79844950
   0.19965227  0.39388099  0.59414429
   0.05030263  0.14858963  0.20630152
   0.76939731  0.52823400  0.79920124
   0.69442596  0.40806411  0.60112543
   0.59871254  0.20219251  0.79666876
   0.54106271  0.06471087  0.59678245
   0.33624595  0.65859837  0.00113394
   0.23163009  0.46925738  0.20106644
SQS with 1 vacancy for VFE and VRV      
           1
    -3.166371   -3.159849   -3.144340
     1.599564    1.658765   -7.956215
     7.915373   -7.935315   -1.535904
   Nb   Mo   Ta   Ti   W 
   6   6   6   5   6
Direct configuration=    20
   0.94723231  0.93131528  0.39809558
   0.63507342  0.27086800  0.40147446
   0.50121325  0.00107285  0.00016422
  -0.00046810  0.00160188  0.00401560
   0.10059206  0.20317429  0.79655746
   0.03915822  0.06566855  0.59456764
   0.90726270  0.79620909  0.20290890
   0.79727827  0.60227323  0.39786870
   0.73144411  0.46752532  0.20112423
   0.66429006  0.33900794 -0.00179918
   0.37249792  0.73195294  0.59461861
   0.13866313  0.26479478  0.39932884
   0.83341921  0.66488935  0.00329610
   0.93138676  0.87118509  0.79833559
   0.55895674  0.12828750  0.20545049
   0.40754412  0.80013655  0.20825419
   0.43933268  0.85760974  0.79431535
   0.29583282  0.60016147  0.40343038
   0.86850241  0.72804226  0.60019725
   0.17402974  0.33514486  0.00295793
   0.26949274  0.53186593  0.79847021
   0.19968717  0.39381114  0.59396373
   0.04992837  0.14890214  0.20646730
   0.76931084  0.52825425  0.79924722
   0.69424454  0.40805374  0.60106316
   0.59847312  0.20218737  0.79657244
   0.54122223  0.06480539  0.59680042
   0.33591120  0.65874699  0.00114490
   0.23182129  0.46911874  0.20110828
