  29  29   0   0
  0.1632129E+02  0.5473281E-09  0.8209921E-09  0.1128346E-08  0.5000000E-15
  1.000000000000000E-004
  CAR 
 Nb - Mo - Ta - Ti - V SQS               
     11.64016179    -50.39149683  301      6.57481460      1.00000000
    -50.391  0.0000E+00  0.0000E+00
    -50.185  0.0000E+00  0.0000E+00
    -49.978  0.0000E+00  0.0000E+00
    -49.771  0.0000E+00  0.0000E+00
    -49.564  0.0000E+00  0.0000E+00
    -49.358 -0.1047E-34 -0.2165E-35
    -49.151 -0.3386E-27 -0.7001E-28
    -48.944 -0.1267E-20 -0.2620E-21
    -48.737 -0.5386E-15 -0.1114E-15
    -48.531 -0.2661E-10 -0.5502E-11
    -48.324 -0.1517E-06 -0.3137E-07
    -48.117 -0.9735E-04 -0.2016E-04
    -47.910 -0.6352E-02 -0.1334E-02
    -47.703 -0.1331E-02 -0.1609E-02
    -47.497  0.3888E+00  0.7879E-01
    -47.290  0.5024E+00  0.1827E+00
    -47.083  0.2518E+00  0.2347E+00
    -46.876  0.3284E-01  0.2415E+00
    -46.670 -0.7129E-02  0.2401E+00
    -46.463 -0.2677E-03  0.2400E+00
    -46.256 -0.8436E-06  0.2400E+00
    -46.049 -0.2826E-09  0.2400E+00
    -45.843 -0.1058E-13  0.2400E+00
    -45.636  0.0000E+00  0.2400E+00
    -45.429  0.0000E+00  0.2400E+00
    -45.222  0.0000E+00  0.2400E+00
    -45.015  0.0000E+00  0.2400E+00
    -44.809  0.0000E+00  0.2400E+00
    -44.602  0.0000E+00  0.2400E+00
    -44.395  0.0000E+00  0.2400E+00
    -44.188  0.0000E+00  0.2400E+00
    -43.982  0.0000E+00  0.2400E+00
    -43.775  0.0000E+00  0.2400E+00
    -43.568  0.0000E+00  0.2400E+00
    -43.361  0.0000E+00  0.2400E+00
    -43.154  0.0000E+00  0.2400E+00
    -42.948  0.0000E+00  0.2400E+00
    -42.741  0.0000E+00  0.2400E+00
    -42.534  0.0000E+00  0.2400E+00
    -42.327  0.0000E+00  0.2400E+00
    -42.121  0.0000E+00  0.2400E+00
    -41.914  0.0000E+00  0.2400E+00
    -41.707  0.0000E+00  0.2400E+00
    -41.500  0.0000E+00  0.2400E+00
    -41.294  0.0000E+00  0.2400E+00
    -41.087  0.0000E+00  0.2400E+00
    -40.880  0.0000E+00  0.2400E+00
    -40.673  0.0000E+00  0.2400E+00
    -40.466  0.0000E+00  0.2400E+00
    -40.260  0.0000E+00  0.2400E+00
    -40.053  0.0000E+00  0.2400E+00
    -39.846  0.0000E+00  0.2400E+00
    -39.639  0.0000E+00  0.2400E+00
    -39.433  0.0000E+00  0.2400E+00
    -39.226  0.0000E+00  0.2400E+00
    -39.019  0.0000E+00  0.2400E+00
    -38.812  0.0000E+00  0.2400E+00
    -38.605  0.0000E+00  0.2400E+00
    -38.399  0.0000E+00  0.2400E+00
    -38.192  0.0000E+00  0.2400E+00
    -37.985  0.0000E+00  0.2400E+00
    -37.778  0.0000E+00  0.2400E+00
    -37.572  0.0000E+00  0.2400E+00
    -37.365  0.0000E+00  0.2400E+00
    -37.158  0.0000E+00  0.2400E+00
    -36.951  0.0000E+00  0.2400E+00
    -36.745  0.0000E+00  0.2400E+00
    -36.538  0.0000E+00  0.2400E+00
    -36.331  0.0000E+00  0.2400E+00
    -36.124  0.0000E+00  0.2400E+00
    -35.917  0.0000E+00  0.2400E+00
    -35.711  0.0000E+00  0.2400E+00
    -35.504  0.0000E+00  0.2400E+00
    -35.297  0.0000E+00  0.2400E+00
    -35.090  0.0000E+00  0.2400E+00
    -34.884  0.0000E+00  0.2400E+00
    -34.677  0.0000E+00  0.2400E+00
    -34.470  0.0000E+00  0.2400E+00
    -34.263  0.0000E+00  0.2400E+00
    -34.056  0.0000E+00  0.2400E+00
    -33.850  0.0000E+00  0.2400E+00
    -33.643  0.0000E+00  0.2400E+00
    -33.436  0.0000E+00  0.2400E+00
    -33.229  0.0000E+00  0.2400E+00
    -33.023  0.0000E+00  0.2400E+00
    -32.816  0.0000E+00  0.2400E+00
    -32.609  0.0000E+00  0.2400E+00
    -32.402  0.0000E+00  0.2400E+00
    -32.196  0.0000E+00  0.2400E+00
    -31.989  0.0000E+00  0.2400E+00
    -31.782  0.0000E+00  0.2400E+00
    -31.575  0.0000E+00  0.2400E+00
    -31.368  0.0000E+00  0.2400E+00
    -31.162  0.0000E+00  0.2400E+00
    -30.955  0.0000E+00  0.2400E+00
    -30.748  0.0000E+00  0.2400E+00
    -30.541  0.0000E+00  0.2400E+00
    -30.335  0.0000E+00  0.2400E+00
    -30.128  0.0000E+00  0.2400E+00
    -29.921  0.0000E+00  0.2400E+00
    -29.714  0.0000E+00  0.2400E+00
    -29.508  0.0000E+00  0.2400E+00
    -29.301  0.0000E+00  0.2400E+00
    -29.094  0.0000E+00  0.2400E+00
    -28.887  0.0000E+00  0.2400E+00
    -28.680  0.0000E+00  0.2400E+00
    -28.474  0.0000E+00  0.2400E+00
    -28.267  0.0000E+00  0.2400E+00
    -28.060  0.0000E+00  0.2400E+00
    -27.853  0.0000E+00  0.2400E+00
    -27.647  0.0000E+00  0.2400E+00
    -27.440  0.0000E+00  0.2400E+00
    -27.233  0.0000E+00  0.2400E+00
    -27.026  0.0000E+00  0.2400E+00
    -26.819  0.0000E+00  0.2400E+00
    -26.613  0.0000E+00  0.2400E+00
    -26.406  0.0000E+00  0.2400E+00
    -26.199  0.0000E+00  0.2400E+00
    -25.992 -0.8222E-32  0.2400E+00
    -25.786 -0.9401E-25  0.2400E+00
    -25.579 -0.1253E-18  0.2400E+00
    -25.372 -0.1881E-13  0.2400E+00
    -25.165 -0.3368E-09  0.2400E+00
    -24.959 -0.7063E-06  0.2400E+00
    -24.752 -0.1749E-03  0.2400E+00
    -24.545 -0.4553E-02  0.2390E+00
    -24.338  0.1708E-01  0.2426E+00
    -24.131  0.1915E+00  0.2821E+00
    -23.925  0.2826E+00  0.3406E+00
    -23.718  0.5960E+00  0.4638E+00
    -23.511  0.9570E+00  0.6617E+00
    -23.304  0.7982E+00  0.8267E+00
    -23.098  0.4550E+00  0.9208E+00
    -22.891  0.1393E+00  0.9496E+00
    -22.684  0.4622E-01  0.9592E+00
    -22.477  0.5530E-02  0.9603E+00
    -22.270 -0.1505E-02  0.9600E+00
    -22.064 -0.4472E-04  0.9600E+00
    -21.857 -0.1212E-06  0.9600E+00
    -21.650 -0.3637E-10  0.9600E+00
    -21.443 -0.1240E-14  0.9600E+00
    -21.237  0.0000E+00  0.9600E+00
    -21.030  0.0000E+00  0.9600E+00
    -20.823  0.0000E+00  0.9600E+00
    -20.616  0.0000E+00  0.9600E+00
    -20.410  0.0000E+00  0.9600E+00
    -20.203  0.0000E+00  0.9600E+00
    -19.996  0.0000E+00  0.9600E+00
    -19.789  0.0000E+00  0.9600E+00
    -19.582  0.0000E+00  0.9600E+00
    -19.376  0.0000E+00  0.9600E+00
    -19.169  0.0000E+00  0.9600E+00
    -18.962  0.0000E+00  0.9600E+00
    -18.755  0.0000E+00  0.9600E+00
    -18.549  0.0000E+00  0.9600E+00
    -18.342  0.0000E+00  0.9600E+00
    -18.135  0.0000E+00  0.9600E+00
    -17.928  0.0000E+00  0.9600E+00
    -17.721  0.0000E+00  0.9600E+00
    -17.515  0.0000E+00  0.9600E+00
    -17.308  0.0000E+00  0.9600E+00
    -17.101  0.0000E+00  0.9600E+00
    -16.894  0.0000E+00  0.9600E+00
    -16.688  0.0000E+00  0.9600E+00
    -16.481  0.0000E+00  0.9600E+00
    -16.274  0.0000E+00  0.9600E+00
    -16.067  0.0000E+00  0.9600E+00
    -15.861  0.0000E+00  0.9600E+00
    -15.654  0.0000E+00  0.9600E+00
    -15.447  0.0000E+00  0.9600E+00
    -15.240  0.0000E+00  0.9600E+00
    -15.033  0.0000E+00  0.9600E+00
    -14.827  0.0000E+00  0.9600E+00
    -14.620  0.0000E+00  0.9600E+00
    -14.413  0.0000E+00  0.9600E+00
    -14.206  0.0000E+00  0.9600E+00
    -14.000  0.0000E+00  0.9600E+00
    -13.793  0.0000E+00  0.9600E+00
    -13.586  0.0000E+00  0.9600E+00
    -13.379  0.0000E+00  0.9600E+00
    -13.173  0.0000E+00  0.9600E+00
    -12.966  0.0000E+00  0.9600E+00
    -12.759  0.0000E+00  0.9600E+00
    -12.552  0.0000E+00  0.9600E+00
    -12.345  0.0000E+00  0.9600E+00
    -12.139  0.0000E+00  0.9600E+00
    -11.932  0.0000E+00  0.9600E+00
    -11.725  0.0000E+00  0.9600E+00
    -11.518  0.0000E+00  0.9600E+00
    -11.312  0.0000E+00  0.9600E+00
    -11.105  0.0000E+00  0.9600E+00
    -10.898  0.0000E+00  0.9600E+00
    -10.691  0.0000E+00  0.9600E+00
    -10.484  0.0000E+00  0.9600E+00
    -10.278  0.0000E+00  0.9600E+00
    -10.071  0.0000E+00  0.9600E+00
     -9.864  0.0000E+00  0.9600E+00
     -9.657  0.0000E+00  0.9600E+00
     -9.451  0.0000E+00  0.9600E+00
     -9.244  0.0000E+00  0.9600E+00
     -9.037  0.0000E+00  0.9600E+00
     -8.830  0.0000E+00  0.9600E+00
     -8.624  0.0000E+00  0.9600E+00
     -8.417  0.0000E+00  0.9600E+00
     -8.210  0.0000E+00  0.9600E+00
     -8.003  0.0000E+00  0.9600E+00
     -7.796  0.0000E+00  0.9600E+00
     -7.590  0.0000E+00  0.9600E+00
     -7.383  0.0000E+00  0.9600E+00
     -7.176  0.0000E+00  0.9600E+00
     -6.969  0.0000E+00  0.9600E+00
     -6.763  0.0000E+00  0.9600E+00
     -6.556  0.0000E+00  0.9600E+00
     -6.349  0.0000E+00  0.9600E+00
     -6.142  0.0000E+00  0.9600E+00
     -5.935  0.0000E+00  0.9600E+00
     -5.729  0.0000E+00  0.9600E+00
     -5.522  0.0000E+00  0.9600E+00
     -5.315  0.0000E+00  0.9600E+00
     -5.108  0.0000E+00  0.9600E+00
     -4.902  0.0000E+00  0.9600E+00
     -4.695  0.0000E+00  0.9600E+00
     -4.488  0.0000E+00  0.9600E+00
     -4.281  0.0000E+00  0.9600E+00
     -4.075  0.0000E+00  0.9600E+00
     -3.868  0.0000E+00  0.9600E+00
     -3.661  0.0000E+00  0.9600E+00
     -3.454  0.0000E+00  0.9600E+00
     -3.247  0.0000E+00  0.9600E+00
     -3.041  0.0000E+00  0.9600E+00
     -2.834  0.0000E+00  0.9600E+00
     -2.627  0.0000E+00  0.9600E+00
     -2.420  0.0000E+00  0.9600E+00
     -2.214  0.0000E+00  0.9600E+00
     -2.007 -0.3252E-36  0.9600E+00
     -1.800 -0.8437E-29  0.9600E+00
     -1.593 -0.2572E-22  0.9600E+00
     -1.386 -0.9020E-17  0.9600E+00
     -1.180 -0.3799E-12  0.9600E+00
     -0.973 -0.1901E-08  0.9600E+00
     -0.766 -0.1127E-05  0.9600E+00
     -0.559 -0.7699E-04  0.9600E+00
     -0.353 -0.3418E-03  0.9599E+00
     -0.146  0.4931E-02  0.9609E+00
      0.061  0.2092E-01  0.9653E+00
      0.268  0.2623E-01  0.9707E+00
      0.474  0.3630E-01  0.9782E+00
      0.681  0.4131E-01  0.9867E+00
      0.888  0.3691E-01  0.9944E+00
      1.095  0.5916E-01  0.1007E+01
      1.302  0.6309E-01  0.1020E+01
      1.508  0.6532E-01  0.1033E+01
      1.715  0.7209E-01  0.1048E+01
      1.922  0.9510E-01  0.1068E+01
      2.129  0.1076E+00  0.1090E+01
      2.335  0.1395E+00  0.1119E+01
      2.542  0.2148E+00  0.1163E+01
      2.749  0.3449E+00  0.1235E+01
      2.956  0.4444E+00  0.1326E+01
      3.163  0.5082E+00  0.1432E+01
      3.369  0.5719E+00  0.1550E+01
      3.576  0.6293E+00  0.1680E+01
      3.783  0.6211E+00  0.1808E+01
      3.990  0.6194E+00  0.1936E+01
      4.196  0.6007E+00  0.2061E+01
      4.403  0.5610E+00  0.2177E+01
      4.610  0.5255E+00  0.2285E+01
      4.817  0.6428E+00  0.2418E+01
      5.023  0.7934E+00  0.2582E+01
      5.230  0.8675E+00  0.2762E+01
      5.437  0.8364E+00  0.2935E+01
      5.644  0.7871E+00  0.3097E+01
      5.851  0.7888E+00  0.3260E+01
      6.057  0.8573E+00  0.3438E+01
      6.264  0.8636E+00  0.3616E+01
      6.471  0.8151E+00  0.3785E+01
      6.678  0.6977E+00  0.3929E+01
      6.884  0.6101E+00  0.4055E+01
      7.091  0.5297E+00  0.4165E+01
      7.298  0.4694E+00  0.4262E+01
      7.505  0.3850E+00  0.4341E+01
      7.711  0.3750E+00  0.4419E+01
      7.918  0.4006E+00  0.4502E+01
      8.125  0.4615E+00  0.4597E+01
      8.332  0.4756E+00  0.4696E+01
      8.539  0.3500E+00  0.4768E+01
      8.745  0.1486E+00  0.4799E+01
      8.952  0.9696E-02  0.4801E+01
      9.159 -0.2793E-02  0.4800E+01
      9.366 -0.1943E-03  0.4800E+01
      9.572 -0.1900E-05  0.4800E+01
      9.779 -0.2450E-08  0.4800E+01
      9.986 -0.3832E-12  0.4800E+01
     10.193 -0.7263E-17  0.4800E+01
     10.400  0.0000E+00  0.4800E+01
     10.606  0.0000E+00  0.4800E+01
     10.813  0.0000E+00  0.4800E+01
     11.020  0.0000E+00  0.4800E+01
     11.227  0.0000E+00  0.4800E+01
     11.433  0.0000E+00  0.4800E+01
     11.640  0.0000E+00  0.4800E+01
