   29   29   50    1
  0.1632129E+02  0.5473281E-09  0.8209921E-09  0.1128346E-08  0.5000000E-15
  1.000000000000000E-004
  CAR 
 Nb - Mo - Ta - Ti - V SQS               
    193    172    120
 
  0.0000000E+00  0.0000000E+00  0.0000000E+00  0.2915452E-02
    1      -47.571876   1.000000
    2      -47.520488   1.000000
    3      -47.483449   1.000000
    4      -47.434564   1.000000
    5      -47.277439   1.000000
    6      -47.149902   1.000000
    7      -24.305269   1.000000
    8      -24.163447   1.000000
    9      -23.978701   1.000000
   10      -23.848524   1.000000
   11      -23.771406   1.000000
   12      -23.687967   1.000000
   13      -23.674796   1.000000
   14      -23.641161   1.000000
   15      -23.613274   1.000000
   16      -23.588000   1.000000
   17      -23.483420   1.000000
   18      -23.447526   1.000000
   19      -23.433591   1.000000
   20      -23.349576   1.000000
   21      -23.320358   1.000000
   22      -23.192609   1.000000
   23      -23.128470   1.000000
   24      -22.766881   1.000000
   25       -0.245258   1.000000
   26        1.015140   1.000000
   27        1.424991   1.000000
   28        2.176064   1.000000
   29        2.294251   1.000000
   30        2.414309   1.000000
   31        2.499109   1.000000
   32        2.673720   1.000000
   33        2.680281   1.000000
   34        2.713162   1.000000
   35        2.825845   1.000000
   36        2.865005   1.000000
   37        3.004630   1.000000
   38        3.056284   1.000000
   39        3.078291   1.000000
   40        3.189803   1.000000
   41        3.305087   1.000000
   42        3.350358   1.000000
   43        3.391708   1.000000
   44        3.447669   1.000000
   45        3.522211   1.000000
   46        3.602073   1.000000
   47        3.663469   1.000000
   48        3.680555   1.000000
   49        3.794329   1.000000
   50        3.844544   1.000000
   51        3.907550   1.000000
   52        4.010802   1.000000
   53        4.088898   1.000000
   54        4.193929   1.000000
   55        4.208477   1.000000
   56        4.351943   1.000000
   57        4.402974   1.000000
   58        4.526000   1.000000
   59        4.595325   1.000000
   60        4.667546   1.000000
   61        4.699391   1.000000
   62        4.757650   1.000000
   63        4.772489   1.000000
   64        4.902609   1.000000
   65        4.923738   1.000000
   66        4.936395   1.000000
   67        4.993906   1.000000
   68        5.031874   1.000000
   69        5.082270   1.000000
   70        5.168866   1.000000
   71        5.201039   1.000000
   72        5.255210   1.000000
   73        5.298778   1.000000
   74        5.330493   1.000000
   75        5.395016   1.000000
   76        5.409788   1.000000
   77        5.502664   1.000000
   78        5.684534   1.000000
   79        5.710875   1.000000
   80        5.829122   1.000001
   81        5.882933   1.000006
   82        5.970370   1.000082
   83        5.985019   1.000124
   84        6.019791   1.000311
   85        6.089730   1.001605
   86        6.158874   1.006127
   87        6.217877   1.015027
   88        6.263408   1.025054
   89        6.280639   1.028929
   90        6.371602   1.026715
   91        6.415356   0.989352
   92        6.487253   0.834053
   93        6.524486   0.705667
   94        6.545155   0.623982
   95        6.620237   0.313188
   96        6.741568   0.001811
   97        6.780833  -0.027975
   98        6.820429  -0.035456
   99        6.846385  -0.033195
  100        6.959664  -0.010133
  101        6.978905  -0.007479
  102        7.109277  -0.000518
  103        7.225066  -0.000021
  104        7.317683  -0.000001
  105        7.411346  -0.000000
  106        7.493454  -0.000000
  107        7.664255  -0.000000
  108        7.729200  -0.000000
  109        7.753756  -0.000000
  110        8.113059  -0.000000
  111        8.188114  -0.000000
  112        8.221557  -0.000000
  113        8.335261  -0.000000
  114        8.456644  -0.000000
  115        8.543944  -0.000000
  116        8.558493  -0.000000
  117        8.639154  -0.000000
  118        8.709218  -0.000000
  119        8.750317  -0.000000
  120        8.789795  -0.000000
 
  0.1428571E+00  0.0000000E+00 -0.1561251E-16  0.5830904E-02
    1      -47.571410   1.000000
    2      -47.516132   1.000000
    3      -47.482830   1.000000
    4      -47.434110   1.000000
    5      -47.277389   1.000000
    6      -47.155371   1.000000
    7      -24.242115   1.000000
    8      -24.160461   1.000000
    9      -23.976603   1.000000
   10      -23.845552   1.000000
   11      -23.772267   1.000000
   12      -23.690919   1.000000
   13      -23.670153   1.000000
   14      -23.644677   1.000000
   15      -23.614119   1.000000
   16      -23.590695   1.000000
   17      -23.483682   1.000000
   18      -23.448973   1.000000
   19      -23.432881   1.000000
   20      -23.355178   1.000000
   21      -23.325543   1.000000
   22      -23.194183   1.000000
   23      -23.131068   1.000000
   24      -22.845599   1.000000
   25       -0.076385   1.000000
   26        1.170108   1.000000
   27        1.570623   1.000000
   28        2.209870   1.000000
   29        2.426153   1.000000
   30        2.535984   1.000000
   31        2.607054   1.000000
   32        2.729259   1.000000
   33        2.769953   1.000000
   34        2.820722   1.000000
   35        2.969345   1.000000
   36        3.004894   1.000000
   37        3.066299   1.000000
   38        3.136419   1.000000
   39        3.178150   1.000000
   40        3.262817   1.000000
   41        3.340666   1.000000
   42        3.413623   1.000000
   43        3.478354   1.000000
   44        3.495169   1.000000
   45        3.576191   1.000000
   46        3.664385   1.000000
   47        3.747105   1.000000
   48        3.782471   1.000000
   49        3.832503   1.000000
   50        3.881934   1.000000
   51        3.984535   1.000000
   52        4.052247   1.000000
   53        4.136767   1.000000
   54        4.189603   1.000000
   55        4.272239   1.000000
   56        4.376710   1.000000
   57        4.478064   1.000000
   58        4.579196   1.000000
   59        4.620894   1.000000
   60        4.663319   1.000000
   61        4.735504   1.000000
   62        4.819580   1.000000
   63        4.844099   1.000000
   64        4.949106   1.000000
   65        4.973822   1.000000
   66        5.017021   1.000000
   67        5.043512   1.000000
   68        5.114791   1.000000
   69        5.156337   1.000000
   70        5.184176   1.000000
   71        5.226160   1.000000
   72        5.283875   1.000000
   73        5.320055   1.000000
   74        5.358305   1.000000
   75        5.464293   1.000000
   76        5.489582   1.000000
   77        5.530421   1.000000
   78        5.632901   1.000000
   79        5.699602   1.000000
   80        5.735067   1.000000
   81        5.800488   1.000000
   82        5.894953   1.000008
   83        5.963915   1.000069
   84        6.015564   1.000279
   85        6.068866   1.001013
   86        6.119267   1.002949
   87        6.197884   1.011396
   88        6.229816   1.017472
   89        6.245034   1.020823
   90        6.341300   1.034914
   91        6.374847   1.025111
   92        6.413247   0.992025
   93        6.458317   0.912000
   94        6.494882   0.810132
   95        6.552892   0.592148
   96        6.591209   0.430888
   97        6.684159   0.105328
   98        6.775160  -0.025305
   99        6.816442  -0.035414
  100        6.865681  -0.029631
  101        6.957948  -0.010398
  102        6.988561  -0.006362
  103        7.101017  -0.000632
  104        7.196619  -0.000050
  105        7.309371  -0.000001
  106        7.352762  -0.000000
  107        7.507811  -0.000000
  108        7.565862  -0.000000
  109        7.614703  -0.000000
  110        7.929667  -0.000000
  111        8.052061  -0.000000
  112        8.115488  -0.000000
  113        8.159135  -0.000000
  114        8.231170  -0.000000
  115        8.314109  -0.000000
  116        8.360132  -0.000000
  117        8.423060  -0.000000
  118        8.471343  -0.000000
  119        8.543049  -0.000000
  120        8.641991  -0.000000
 
  0.2857143E+00  0.1387779E-16  0.3469447E-17  0.5830904E-02
    1      -47.570444   1.000000
    2      -47.506113   1.000000
    3      -47.481170   1.000000
    4      -47.432908   1.000000
    5      -47.277277   1.000000
    6      -47.168261   1.000000
    7      -24.170941   1.000000
    8      -24.052127   1.000000
    9      -23.968250   1.000000
   10      -23.836117   1.000000
   11      -23.774250   1.000000
   12      -23.697736   1.000000
   13      -23.659791   1.000000
   14      -23.652242   1.000000
   15      -23.615651   1.000000
   16      -23.596076   1.000000
   17      -23.484399   1.000000
   18      -23.453517   1.000000
   19      -23.429295   1.000000
   20      -23.368695   1.000000
   21      -23.338014   1.000000
   22      -23.198549   1.000000
   23      -23.136977   1.000000
   24      -23.058637   1.000000
   25        0.401547   1.000000
   26        1.583563   1.000000
   27        1.948074   1.000000
   28        2.351702   1.000000
   29        2.619479   1.000000
   30        2.706958   1.000000
   31        2.864175   1.000000
   32        2.897326   1.000000
   33        2.983657   1.000000
   34        3.055291   1.000000
   35        3.148021   1.000000
   36        3.246607   1.000000
   37        3.268172   1.000000
   38        3.345423   1.000000
   39        3.414720   1.000000
   40        3.471259   1.000000
   41        3.506193   1.000000
   42        3.561369   1.000000
   43        3.612045   1.000000
   44        3.675665   1.000000
   45        3.717666   1.000000
   46        3.798512   1.000000
   47        3.855032   1.000000
   48        3.932335   1.000000
   49        4.012259   1.000000
   50        4.080580   1.000000
   51        4.135635   1.000000
   52        4.219530   1.000000
   53        4.291431   1.000000
   54        4.362572   1.000000
   55        4.387041   1.000000
   56        4.485776   1.000000
   57        4.589009   1.000000
   58        4.651225   1.000000
   59        4.720785   1.000000
   60        4.766230   1.000000
   61        4.814838   1.000000
   62        4.839791   1.000000
   63        4.909837   1.000000
   64        5.020130   1.000000
   65        5.039661   1.000000
   66        5.111208   1.000000
   67        5.133242   1.000000
   68        5.158222   1.000000
   69        5.205343   1.000000
   70        5.259426   1.000000
   71        5.312070   1.000000
   72        5.373394   1.000000
   73        5.404369   1.000000
   74        5.448282   1.000000
   75        5.512566   1.000000
   76        5.533406   1.000000
   77        5.572567   1.000000
   78        5.646359   1.000000
   79        5.703648   1.000000
   80        5.745688   1.000000
   81        5.796364   1.000000
   82        5.818224   1.000001
   83        5.876293   1.000005
   84        5.926778   1.000023
   85        5.956064   1.000055
   86        5.994103   1.000159
   87        6.081038   1.001329
   88        6.147152   1.004986
   89        6.209781   1.013483
   90        6.264993   1.025420
   91        6.297067   1.032176
   92        6.343481   1.034676
   93        6.368923   1.027921
   94        6.404475   1.002117
   95        6.455210   0.919125
   96        6.515268   0.740007
   97        6.577022   0.490661
   98        6.607351   0.364329
   99        6.655722   0.186737
  100        6.718037   0.034628
  101        6.760369  -0.015917
  102        6.897636  -0.022415
  103        6.956948  -0.010555
  104        7.043722  -0.002254
  105        7.144436  -0.000213
  106        7.177504  -0.000087
  107        7.277729  -0.000004
  108        7.317443  -0.000001
  109        7.366584  -0.000000
  110        7.452032  -0.000000
  111        7.502675  -0.000000
  112        7.729609  -0.000000
  113        7.771867  -0.000000
  114        7.886755  -0.000000
  115        7.963992  -0.000000
  116        8.009987  -0.000000
  117        8.078387  -0.000000
  118        8.136213  -0.000000
  119        8.174198  -0.000000
  120        8.305677  -0.000000
 
  0.4285714E+00  0.5551115E-16 -0.4163336E-16  0.5830904E-02
    1      -47.569729   1.000000
    2      -47.498165   1.000000
    3      -47.479260   1.000000
    4      -47.431660   1.000000
    5      -47.277189   1.000000
    6      -47.179310   1.000000
    7      -24.168337   1.000000
    8      -23.975288   1.000000
    9      -23.864271   1.000000
   10      -23.778575   1.000000
   11      -23.754047   1.000000
   12      -23.702330   1.000000
   13      -23.658378   1.000000
   14      -23.651877   1.000000
   15      -23.615663   1.000000
   16      -23.599851   1.000000
   17      -23.485163   1.000000
   18      -23.457589   1.000000
   19      -23.425205   1.000000
   20      -23.384332   1.000000
   21      -23.353983   1.000000
   22      -23.329425   1.000000
   23      -23.200500   1.000000
   24      -23.139654   1.000000
   25        1.093928   1.000000
   26        1.835687   1.000000
   27        2.231776   1.000000
   28        2.454422   1.000000
   29        2.631583   1.000000
   30        2.814046   1.000000
   31        2.926061   1.000000
   32        3.074715   1.000000
   33        3.179526   1.000000
   34        3.267346   1.000000
   35        3.303447   1.000000
   36        3.352939   1.000000
   37        3.437272   1.000000
   38        3.486819   1.000000
   39        3.527657   1.000000
   40        3.659385   1.000000
   41        3.722006   1.000000
   42        3.782067   1.000000
   43        3.800595   1.000000
   44        3.874202   1.000000
   45        3.941417   1.000000
   46        4.003735   1.000000
   47        4.068559   1.000000
   48        4.115672   1.000000
   49        4.148049   1.000000
   50        4.189171   1.000000
   51        4.247159   1.000000
   52        4.318698   1.000000
   53        4.405219   1.000000
   54        4.477368   1.000000
   55        4.562737   1.000000
   56        4.618889   1.000000
   57        4.668668   1.000000
   58        4.697232   1.000000
   59        4.741180   1.000000
   60        4.818862   1.000000
   61        4.875086   1.000000
   62        4.897671   1.000000
   63        4.951205   1.000000
   64        4.999278   1.000000
   65        5.036968   1.000000
   66        5.092144   1.000000
   67        5.120995   1.000000
   68        5.155683   1.000000
   69        5.232343   1.000000
   70        5.279330   1.000000
   71        5.319890   1.000000
   72        5.356855   1.000000
   73        5.391902   1.000000
   74        5.445063   1.000000
   75        5.525699   1.000000
   76        5.557303   1.000000
   77        5.597334   1.000000
   78        5.661328   1.000000
   79        5.677241   1.000000
   80        5.769258   1.000000
   81        5.792718   1.000000
   82        5.844406   1.000002
   83        5.894889   1.000008
   84        5.948698   1.000044
   85        5.999585   1.000184
   86        6.020057   1.000313
   87        6.079146   1.001275
   88        6.140220   1.004396
   89        6.166805   1.007009
   90        6.205244   1.012661
   91        6.240036   1.019699
   92        6.302668   1.033106
   93        6.338241   1.035172
   94        6.380943   1.021648
   95        6.409663   0.996347
   96        6.441845   0.946998
   97        6.519969   0.722679
   98        6.599769   0.395315
   99        6.644523   0.223961
  100        6.686697   0.099032
  101        6.733028   0.012273
  102        6.807026  -0.034777
  103        6.845750  -0.033292
  104        6.882326  -0.025951
  105        6.998979  -0.005307
  106        7.039940  -0.002435
  107        7.110287  -0.000506
  108        7.154075  -0.000165
  109        7.272225  -0.000005
  110        7.338424  -0.000000
  111        7.403409  -0.000000
  112        7.540967  -0.000000
  113        7.613309  -0.000000
  114        7.704144  -0.000000
  115        7.736299  -0.000000
  116        7.822581  -0.000000
  117        7.902390  -0.000000
  118        7.928634  -0.000000
  119        7.991599  -0.000000
  120        8.117066  -0.000000
 
 -0.6938894E-17  0.1428571E+00  0.1040834E-16  0.5830904E-02
    1      -47.571858   1.000000
    2      -47.520479   1.000000
    3      -47.483346   1.000000
    4      -47.434565   1.000000
    5      -47.277571   1.000000
    6      -47.149900   1.000000
    7      -24.305268   1.000000
    8      -24.162483   1.000000
    9      -23.976568   1.000000
   10      -23.848447   1.000000
   11      -23.771322   1.000000
   12      -23.688004   1.000000
   13      -23.674873   1.000000
   14      -23.641229   1.000000
   15      -23.613340   1.000000
   16      -23.588012   1.000000
   17      -23.483348   1.000000
   18      -23.447451   1.000000
   19      -23.433564   1.000000
   20      -23.349614   1.000000
   21      -23.320399   1.000000
   22      -23.193924   1.000000
   23      -23.130985   1.000000
   24      -22.766888   1.000000
   25       -0.176364   1.000000
   26        1.052020   1.000000
   27        1.489657   1.000000
   28        1.928517   1.000000
   29        2.339821   1.000000
   30        2.435162   1.000000
   31        2.469729   1.000000
   32        2.620463   1.000000
   33        2.685901   1.000000
   34        2.760808   1.000000
   35        2.863127   1.000000
   36        2.872938   1.000000
   37        2.956954   1.000000
   38        3.003435   1.000000
   39        3.100345   1.000000
   40        3.118092   1.000000
   41        3.308878   1.000000
   42        3.364411   1.000000
   43        3.388580   1.000000
   44        3.450680   1.000000
   45        3.529940   1.000000
   46        3.606592   1.000000
   47        3.682345   1.000000
   48        3.735583   1.000000
   49        3.764872   1.000000
   50        3.871609   1.000000
   51        3.963113   1.000000
   52        4.041189   1.000000
   53        4.093776   1.000000
   54        4.191647   1.000000
   55        4.241422   1.000000
   56        4.377634   1.000000
   57        4.435727   1.000000
   58        4.516549   1.000000
   59        4.582101   1.000000
   60        4.677596   1.000000
   61        4.724872   1.000000
   62        4.793733   1.000000
   63        4.843497   1.000000
   64        4.893838   1.000000
   65        4.925815   1.000000
   66        4.959663   1.000000
   67        5.004705   1.000000
   68        5.037397   1.000000
   69        5.083267   1.000000
   70        5.178242   1.000000
   71        5.228550   1.000000
   72        5.283474   1.000000
   73        5.300615   1.000000
   74        5.327232   1.000000
   75        5.394659   1.000000
   76        5.462965   1.000000
   77        5.530906   1.000000
   78        5.675048   1.000000
   79        5.733145   1.000000
   80        5.824518   1.000001
   81        5.909010   1.000013
   82        5.923631   1.000021
   83        5.976443   1.000098
   84        6.035382   1.000459
   85        6.061667   1.000859
   86        6.119596   1.002968
   87        6.158739   1.006113
   88        6.213420   1.014165
   89        6.261553   1.024625
   90        6.292192   1.031283
   91        6.374512   1.025283
   92        6.443700   0.943397
   93        6.472738   0.875746
   94        6.500514   0.791631
   95        6.558108   0.570420
   96        6.655755   0.186632
   97        6.696414   0.076428
   98        6.860309  -0.030725
   99        6.889334  -0.024334
  100        6.996862  -0.005510
  101        7.099557  -0.000655
  102        7.116608  -0.000433
  103        7.254035  -0.000009
  104        7.315323  -0.000001
  105        7.447011  -0.000000
  106        7.491957  -0.000000
  107        7.616472  -0.000000
  108        7.692921  -0.000000
  109        7.810925  -0.000000
  110        7.958448  -0.000000
  111        8.147951  -0.000000
  112        8.218836  -0.000000
  113        8.248881  -0.000000
  114        8.348916  -0.000000
  115        8.449401  -0.000000
  116        8.522087  -0.000000
  117        8.559240  -0.000000
  118        8.589932  -0.000000
  119        8.655100  -0.000000
  120        8.687272  -0.000000
 
  0.1428571E+00  0.1428571E+00 -0.1387779E-16  0.5830904E-02
    1      -47.571426   1.000000
    2      -47.516142   1.000000
    3      -47.482926   1.000000
    4      -47.434110   1.000000
    5      -47.277264   1.000000
    6      -47.155373   1.000000
    7      -24.242136   1.000000
    8      -24.161368   1.000000
    9      -23.978661   1.000000
   10      -23.845628   1.000000
   11      -23.772333   1.000000
   12      -23.690911   1.000000
   13      -23.670111   1.000000
   14      -23.644694   1.000000
   15      -23.614078   1.000000
   16      -23.590677   1.000000
   17      -23.483748   1.000000
   18      -23.448958   1.000000
   19      -23.432866   1.000000
   20      -23.355139   1.000000
   21      -23.325499   1.000000
   22      -23.192868   1.000000
   23      -23.128738   1.000000
   24      -22.845593   1.000000
   25       -0.075246   1.000000
   26        1.152138   1.000000
   27        1.583279   1.000000
   28        2.206804   1.000000
   29        2.415537   1.000000
   30        2.526138   1.000000
   31        2.599434   1.000000
   32        2.667710   1.000000
   33        2.783824   1.000000
   34        2.812159   1.000000
   35        2.921222   1.000000
   36        2.956419   1.000000
   37        3.007606   1.000000
   38        3.117657   1.000000
   39        3.162297   1.000000
   40        3.256007   1.000000
   41        3.355957   1.000000
   42        3.445337   1.000000
   43        3.461001   1.000000
   44        3.512624   1.000000
   45        3.563271   1.000000
   46        3.642429   1.000000
   47        3.741315   1.000000
   48        3.779035   1.000000
   49        3.844466   1.000000
   50        3.918409   1.000000
   51        4.020848   1.000000
   52        4.086587   1.000000
   53        4.155160   1.000000
   54        4.266285   1.000000
   55        4.281086   1.000000
   56        4.406397   1.000000
   57        4.493108   1.000000
   58        4.538506   1.000000
   59        4.638952   1.000000
   60        4.704292   1.000000
   61        4.737949   1.000000
   62        4.776437   1.000000
   63        4.851086   1.000000
   64        4.900937   1.000000
   65        4.927542   1.000000
   66        5.013902   1.000000
   67        5.045389   1.000000
   68        5.080244   1.000000
   69        5.123876   1.000000
   70        5.177661   1.000000
   71        5.222308   1.000000
   72        5.243206   1.000000
   73        5.285606   1.000000
   74        5.343818   1.000000
   75        5.455103   1.000000
   76        5.501934   1.000000
   77        5.539030   1.000000
   78        5.671647   1.000000
   79        5.698957   1.000000
   80        5.729010   1.000000
   81        5.769976   1.000000
   82        5.865373   1.000003
   83        5.912019   1.000015
   84        5.970039   1.000082
   85        6.048483   1.000630
   86        6.111558   1.002529
   87        6.169673   1.007351
   88        6.218885   1.015226
   89        6.319814   1.035095
   90        6.336474   1.035282
   91        6.380479   1.021933
   92        6.442494   0.945747
   93        6.463202   0.900306
   94        6.527008   0.696021
   95        6.595609   0.412536
   96        6.692645   0.084914
   97        6.709738   0.049303
   98        6.811433  -0.035175
   99        6.836978  -0.034445
  100        6.883321  -0.025722
  101        6.975978  -0.007845
  102        7.064613  -0.001450
  103        7.125291  -0.000349
  104        7.165576  -0.000121
  105        7.252089  -0.000009
  106        7.417481  -0.000000
  107        7.475792  -0.000000
  108        7.615304  -0.000000
  109        7.659186  -0.000000
  110        7.765064  -0.000000
  111        8.060712  -0.000000
  112        8.119439  -0.000000
  113        8.255335  -0.000000
  114        8.287901  -0.000000
  115        8.394530  -0.000000
  116        8.478619  -0.000000
  117        8.530969  -0.000000
  118        8.572328  -0.000000
  119        8.603945  -0.000000
  120        8.712446  -0.000000
 
  0.2857143E+00  0.1428571E+00  0.2775558E-16  0.5830904E-02
    1      -47.570481   1.000000
    2      -47.506146   1.000000
    3      -47.481379   1.000000
    4      -47.432907   1.000000
    5      -47.276991   1.000000
    6      -47.168266   1.000000
    7      -24.172783   1.000000
    8      -24.052767   1.000000
    9      -23.972649   1.000000
   10      -23.836269   1.000000
   11      -23.774428   1.000000
   12      -23.697696   1.000000
   13      -23.659670   1.000000
   14      -23.652229   1.000000
   15      -23.615554   1.000000
   16      -23.596024   1.000000
   17      -23.484548   1.000000
   18      -23.453540   1.000000
   19      -23.429278   1.000000
   20      -23.368603   1.000000
   21      -23.337917   1.000000
   22      -23.195193   1.000000
   23      -23.131949   1.000000
   24      -23.058616   1.000000
   25        0.340573   1.000000
   26        1.507183   1.000000
   27        1.910658   1.000000
   28        2.445810   1.000000
   29        2.537869   1.000000
   30        2.704379   1.000000
   31        2.806353   1.000000
   32        2.936985   1.000000
   33        3.003732   1.000000
   34        3.049293   1.000000
   35        3.117522   1.000000
   36        3.188890   1.000000
   37        3.270936   1.000000
   38        3.325509   1.000000
   39        3.393952   1.000000
   40        3.464586   1.000000
   41        3.508322   1.000000
   42        3.550909   1.000000
   43        3.618751   1.000000
   44        3.701163   1.000000
   45        3.736823   1.000000
   46        3.794285   1.000000
   47        3.863448   1.000000
   48        3.925530   1.000000
   49        4.007667   1.000000
   50        4.075175   1.000000
   51        4.159520   1.000000
   52        4.244441   1.000000
   53        4.285385   1.000000
   54        4.326117   1.000000
   55        4.398229   1.000000
   56        4.482325   1.000000
   57        4.577165   1.000000
   58        4.633089   1.000000
   59        4.712483   1.000000
   60        4.779089   1.000000
   61        4.793305   1.000000
   62        4.859556   1.000000
   63        4.912027   1.000000
   64        5.019653   1.000000
   65        5.032056   1.000000
   66        5.064355   1.000000
   67        5.121687   1.000000
   68        5.174012   1.000000
   69        5.191172   1.000000
   70        5.225054   1.000000
   71        5.287346   1.000000
   72        5.324653   1.000000
   73        5.355306   1.000000
   74        5.393726   1.000000
   75        5.443553   1.000000
   76        5.499612   1.000000
   77        5.562452   1.000000
   78        5.659913   1.000000
   79        5.692873   1.000000
   80        5.777530   1.000000
   81        5.797822   1.000000
   82        5.896532   1.000009
   83        5.933305   1.000028
   84        5.987694   1.000133
   85        6.002783   1.000200
   86        6.048079   1.000624
   87        6.080351   1.001309
   88        6.142298   1.004566
   89        6.165966   1.006911
   90        6.204122   1.012462
   91        6.264311   1.025263
   92        6.302960   1.033151
   93        6.350282   1.033620
   94        6.398096   1.008452
   95        6.455085   0.919406
   96        6.500291   0.792377
   97        6.543689   0.629951
   98        6.616718   0.326934
   99        6.644203   0.225065
  100        6.766732  -0.020409
  101        6.815826  -0.035397
  102        6.888545  -0.024517
  103        6.981942  -0.007113
  104        7.008744  -0.004450
  105        7.165395  -0.000121
  106        7.203191  -0.000041
  107        7.279911  -0.000004
  108        7.331124  -0.000001
  109        7.384294  -0.000000
  110        7.535230  -0.000000
  111        7.653477  -0.000000
  112        7.816367  -0.000000
  113        8.002527  -0.000000
  114        8.072497  -0.000000
  115        8.131906  -0.000000
  116        8.172601  -0.000000
  117        8.218291  -0.000000
  118        8.283171  -0.000000
  119        8.327631  -0.000000
  120        8.423244  -0.000000
 
  0.4285714E+00  0.1428571E+00 -0.2081668E-16  0.5830904E-02
    1      -47.569759   1.000000
    2      -47.498209   1.000000
    3      -47.479411   1.000000
    4      -47.431660   1.000000
    5      -47.276960   1.000000
    6      -47.179314   1.000000
    7      -24.169861   1.000000
    8      -23.979205   1.000000
    9      -23.864544   1.000000
   10      -23.778750   1.000000
   11      -23.754026   1.000000
   12      -23.702306   1.000000
   13      -23.658358   1.000000
   14      -23.651789   1.000000
   15      -23.615596   1.000000
   16      -23.599799   1.000000
   17      -23.485280   1.000000
   18      -23.457595   1.000000
   19      -23.425194   1.000000
   20      -23.384267   1.000000
   21      -23.353902   1.000000
   22      -23.329399   1.000000
   23      -23.197199   1.000000
   24      -23.136158   1.000000
   25        0.999503   1.000000
   26        1.852888   1.000000
   27        2.177664   1.000000
   28        2.396659   1.000000
   29        2.572453   1.000000
   30        2.702892   1.000000
   31        2.974278   1.000000
   32        3.140852   1.000000
   33        3.203556   1.000000
   34        3.283195   1.000000
   35        3.335748   1.000000
   36        3.386075   1.000000
   37        3.464256   1.000000
   38        3.506431   1.000000
   39        3.603943   1.000000
   40        3.629982   1.000000
   41        3.716706   1.000000
   42        3.760452   1.000000
   43        3.807356   1.000000
   44        3.886335   1.000000
   45        3.913118   1.000000
   46        3.974719   1.000000
   47        4.052127   1.000000