       N       E                     dE             d eps       ncg     rms          rms(c)
DAV:   1    -0.446776862674E+04   -0.44678E+04   -0.16656E+05 62940   0.196E+03
DAV:   2    -0.966722562799E+04   -0.51995E+04   -0.49472E+04 75300   0.114E+03
DAV:   3    -0.104729478582E+05   -0.80572E+03   -0.77830E+03 82560   0.475E+02
DAV:   4    -0.107066776511E+05   -0.23373E+03   -0.21257E+03 82560   0.211E+02
DAV:   5    -0.108664277048E+05   -0.15975E+03   -0.14231E+03 82560   0.160E+02    0.539E+03
DAV:   6    -0.108800685085E+04    0.97784E+04   -0.25716E+04 65484   0.603E+02    0.252E+03
DAV:   7    -0.931737944212E+03    0.15627E+03   -0.17014E+04 70752   0.559E+02    0.194E+03
DAV:   8    -0.624860202583E+03    0.30688E+03   -0.38373E+03 69624   0.326E+02    0.174E+03
DAV:   9    -0.556389657854E+03    0.68471E+02   -0.65211E+02 74868   0.755E+01    0.166E+03
DAV:  10    -0.561730960032E+03   -0.53413E+01   -0.16897E+02 73716   0.550E+01    0.160E+03
DAV:  11    -0.465536404212E+03    0.96195E+02   -0.35954E+02 68568   0.576E+01    0.139E+03
DAV:  12    -0.586081049613E+03   -0.12054E+03   -0.52750E+03 69912   0.458E+02    0.883E+02
DAV:  13    -0.476110055514E+03    0.10997E+03   -0.24485E+03 57696   0.241E+02    0.546E+02
DAV:  14    -0.450226594849E+03    0.25883E+02   -0.15100E+03 76404   0.135E+02    0.201E+02
DAV:  15    -0.402936395692E+03    0.47290E+02   -0.52567E+02 73356   0.733E+01    0.171E+02
DAV:  16    -0.387889331060E+03    0.15047E+02   -0.14778E+02 80364   0.485E+01    0.165E+02
DAV:  17    -0.365600037380E+03    0.22289E+02   -0.52101E+01 74964   0.314E+01    0.153E+02
DAV:  18    -0.336458773906E+03    0.29141E+02   -0.74674E+01 73800   0.341E+01    0.140E+02
DAV:  19    -0.325331020505E+03    0.11128E+02   -0.20396E+02 73704   0.620E+01    0.117E+02
DAV:  20    -0.318472714805E+03    0.68583E+01   -0.86054E+01 67968   0.442E+01    0.978E+01
DAV:  21    -0.315707964102E+03    0.27648E+01   -0.40502E+01 71292   0.295E+01    0.857E+01
DAV:  22    -0.321507333473E+03   -0.57994E+01   -0.56205E+01 72348   0.308E+01    0.738E+01
DAV:  23    -0.313396368710E+03    0.81110E+01   -0.77896E+01 70800   0.369E+01    0.486E+01
DAV:  24    -0.308926674971E+03    0.44697E+01   -0.42906E+01 73428   0.247E+01    0.312E+01
DAV:  25    -0.307239097296E+03    0.16876E+01   -0.16329E+01 67224   0.161E+01    0.303E+01
DAV:  26    -0.307678091211E+03   -0.43899E+00   -0.58798E+00 65628   0.103E+01    0.293E+01
DAV:  27    -0.307329335749E+03    0.34876E+00   -0.14814E+00 71472   0.540E+00    0.260E+01
DAV:  28    -0.307068321737E+03    0.26101E+00   -0.39760E-01 67836   0.265E+00    0.243E+01
DAV:  29    -0.306956782572E+03    0.11154E+00   -0.13764E+00 70404   0.507E+00    0.192E+01
DAV:  30    -0.306617399326E+03    0.33938E+00   -0.19121E+00 69036   0.544E+00    0.147E+01
DAV:  31    -0.306411979116E+03    0.20542E+00   -0.79370E-01 73716   0.362E+00    0.112E+01
DAV:  32    -0.306348575676E+03    0.63403E-01   -0.31193E-01 66912   0.244E+00    0.976E+00
DAV:  33    -0.306306646842E+03    0.41929E-01   -0.26315E-01 69384   0.185E+00    0.776E+00
DAV:  34    -0.306292926746E+03    0.13720E-01   -0.13158E-01 69744   0.111E+00    0.584E+00
DAV:  35    -0.306353618956E+03   -0.60692E-01   -0.47413E-01 63720   0.300E+00    0.459E+00
DAV:  36    -0.306291139209E+03    0.62480E-01   -0.10678E-01 65088   0.141E+00    0.327E+00
DAV:  37    -0.306263138738E+03    0.28000E-01   -0.66945E-02 69492   0.897E-01    0.211E+00
DAV:  38    -0.306255874361E+03    0.72644E-02   -0.14428E-02 66480   0.454E-01    0.162E+00
DAV:  39    -0.306250912506E+03    0.49619E-02   -0.83156E-03 67368   0.330E-01    0.125E+00
DAV:  40    -0.306247337155E+03    0.35754E-02   -0.53289E-03 60600   0.334E-01    0.863E-01
DAV:  41    -0.306246319124E+03    0.10180E-02   -0.14655E-02 58020   0.522E-01    0.644E-01
DAV:  42    -0.306245458576E+03    0.86055E-03   -0.23961E-03 59736   0.189E-01    0.422E-01
DAV:  43    -0.306245731234E+03   -0.27266E-03   -0.21769E-03 56928   0.217E-01    0.376E-01
DAV:  44    -0.306245463375E+03    0.26786E-03   -0.19529E-04 31044   0.727E-02    0.287E-01
DAV:  45    -0.306245187411E+03    0.27596E-03   -0.49182E-04 41736   0.665E-02    0.185E-01
DAV:  46    -0.306245017993E+03    0.16942E-03   -0.25505E-04 34824   0.682E-02    0.119E-01
DAV:  47    -0.306244958176E+03    0.59817E-04   -0.30761E-04 37296   0.541E-02
   1 F= -.30624496E+03 E0= -.30623924E+03  d E =-.306245E+03
       N       E                     dE             d eps       ncg     rms          rms(c)
DAV:   1    -0.306513694444E+03   -0.26868E+00   -0.73835E+01 41280   0.276E+01    0.327E+00
DAV:   2    -0.307736965397E+03   -0.12233E+01   -0.10602E+01 70176   0.187E+01    0.863E+00
DAV:   3    -0.306841759945E+03    0.89521E+00   -0.46772E+00 70296   0.961E+00    0.245E+00
DAV:   4    -0.306837175856E+03    0.45841E-02   -0.92621E-01 68424   0.444E+00    0.271E+00
DAV:   5    -0.306789294394E+03    0.47881E-01   -0.56363E-01 70608   0.374E+00    0.155E+00
DAV:   6    -0.306771214424E+03    0.18080E-01   -0.19777E-01 67404   0.193E+00    0.103E+00
DAV:   7    -0.306775047111E+03   -0.38327E-02   -0.21227E-01 75768   0.188E+00    0.128E+00
DAV:   8    -0.306771063852E+03    0.39833E-02   -0.17095E-01 71976   0.187E+00    0.108E+00
DAV:   9    -0.306760590871E+03    0.10473E-01   -0.80165E-02 71964   0.124E+00    0.507E-01
DAV:  10    -0.306758465999E+03    0.21249E-02   -0.19603E-02 67248   0.578E-01    0.281E-01
DAV:  11    -0.306758094890E+03    0.37111E-03   -0.61682E-03 66336   0.326E-01    0.199E-01
DAV:  12    -0.306758189733E+03   -0.94843E-04   -0.40840E-03 65280   0.247E-01    0.182E-01
DAV:  13    -0.306758251102E+03   -0.61369E-04   -0.40102E-03 59040   0.286E-01    0.178E-01
DAV:  14    -0.306758098732E+03    0.15237E-03   -0.31698E-03 59484   0.265E-01    0.106E-01
DAV:  15    -0.306758050629E+03    0.48103E-04   -0.13698E-03 55596   0.169E-01    0.725E-02
DAV:  16    -0.306757979867E+03    0.70762E-04   -0.57006E-04 43860   0.102E-01
   2 F= -.30675798E+03 E0= -.30675371E+03  d E =-.513022E+00
       N       E                     dE             d eps       ncg     rms          rms(c)
DAV:   1    -0.306681820315E+03    0.76230E-01   -0.73745E+01 41280   0.277E+01    0.329E+00
DAV:   2    -0.307864885666E+03   -0.11831E+01   -0.10422E+01 70212   0.188E+01    0.833E+00
DAV:   3    -0.307019485675E+03    0.84540E+00   -0.44394E+00 70188   0.955E+00    0.245E+00
DAV:   4    -0.307008402982E+03    0.11083E-01   -0.90072E-01 68352   0.441E+00    0.259E+00
DAV:   5    -0.306967918300E+03    0.40485E-01   -0.53427E-01 68700   0.369E+00    0.158E+00
DAV:   6    -0.306947557687E+03    0.20361E-01   -0.18876E-01 69252   0.193E+00    0.937E-01
DAV:   7    -0.306954850959E+03   -0.72933E-02   -0.20695E-01 75132   0.184E+00    0.128E+00
DAV:   8    -0.306947148648E+03    0.77023E-02   -0.16357E-01 72096   0.185E+00    0.942E-01
DAV:   9    -0.306938824720E+03    0.83239E-02   -0.64849E-02 71880   0.115E+00    0.473E-01
DAV:  10    -0.306936988018E+03    0.18367E-02   -0.16367E-02 65208   0.525E-01    0.246E-01
DAV:  11    -0.306936812005E+03    0.17601E-03   -0.47249E-03 64308   0.293E-01    0.192E-01
DAV:  12    -0.306936855308E+03   -0.43303E-04   -0.33653E-03 65508   0.235E-01    0.154E-01
DAV:  13    -0.306936954256E+03   -0.98948E-04   -0.34041E-03 62544   0.257E-01    0.167E-01
DAV:  14    -0.306936832628E+03    0.12163E-03   -0.30296E-03 57804   0.257E-01    0.109E-01
DAV:  15    -0.306936769921E+03    0.62707E-04   -0.11897E-03 53568   0.169E-01    0.690E-02
DAV:  16    -0.306936700743E+03    0.69178E-04   -0.41966E-04 39504   0.979E-02
   3 F= -.30693670E+03 E0= -.30693392E+03  d E =-.691743E+00
       N       E                     dE             d eps       ncg     rms          rms(c)
DAV:   1    -0.307435663985E+03   -0.49889E+00   -0.67204E+01 56328   0.353E+01    0.770E+00
DAV:   2    -0.308198436998E+03   -0.76277E+00   -0.15328E+01 75240   0.181E+01    0.938E+00
DAV:   3    -0.307657599739E+03    0.54084E+00   -0.14504E+01 73860   0.144E+01    0.798E+00
DAV:   4    -0.307385895065E+03    0.27170E+00   -0.62946E+00 68076   0.124E+01    0.498E+00
DAV:   5    -0.307140982662E+03    0.24491E+00   -0.23009E+00 73320   0.670E+00    0.343E+00
DAV:   6    -0.307016033064E+03    0.12495E+00   -0.14459E+00 71556   0.552E+00    0.227E+00
DAV:   7    -0.307004057441E+03    0.11976E-01   -0.76882E-01 72000   0.392E+00    0.210E+00
DAV:   8    -0.306980522468E+03    0.23535E-01   -0.44425E-01 71796   0.299E+00    0.124E+00
DAV:   9    -0.306969843421E+03    0.10679E-01   -0.10462E-01 70044   0.147E+00    0.683E-01
DAV:  10    -0.306967798101E+03    0.20453E-02   -0.25356E-02 71748   0.657E-01    0.545E-01
DAV:  11    -0.306968559160E+03   -0.76106E-03   -0.97967E-03 64392   0.423E-01    0.481E-01
DAV:  12    -0.306970199778E+03   -0.16406E-02   -0.13562E-02 64296   0.508E-01    0.458E-01
DAV:  13    -0.306972507143E+03   -0.23074E-02   -0.18107E-02 71808   0.541E-01    0.386E-01
DAV:  14    -0.306971838454E+03    0.66869E-03   -0.17237E-02 70524   0.571E-01    0.236E-01
DAV:  15    -0.306971609891E+03    0.22856E-03   -0.79043E-03 70596   0.384E-01    0.157E-01
DAV:  16    -0.306971366489E+03    0.24340E-03   -0.31209E-03 62568   0.231E-01    0.758E-02
DAV:  17    -0.306971297009E+03    0.69481E-04   -0.51792E-04 44028   0.109E-01
   4 F= -.30697130E+03 E0= -.30697006E+03  d E =-.345963E-01
       N       E                     dE             d eps       ncg     rms          rms(c)
DAV:   1    -0.307120841343E+03   -0.14947E+00   -0.12835E+01 54960   0.153E+01    0.355E+00
DAV:   2    -0.307266391511E+03   -0.14555E+00   -0.31234E+00 73848   0.811E+00    0.393E+00
DAV:   3    -0.307195451856E+03    0.70940E-01   -0.28803E+00 72768   0.712E+00    0.372E+00
DAV:   4    -0.307084553506E+03    0.11090E+00   -0.90464E-01 70116   0.435E+00    0.194E+00
DAV:   5    -0.307059938833E+03    0.24615E-01   -0.49902E-01 74400   0.309E+00    0.168E+00
DAV:   6    -0.307034665718E+03    0.25273E-01   -0.31067E-01 70536   0.265E+00    0.972E-01
DAV:   7    -0.307030786235E+03    0.38795E-02   -0.13539E-01 73812   0.158E+00    0.826E-01
DAV:   8    -0.307026947850E+03    0.38384E-02   -0.69910E-02 71712   0.115E+00    0.538E-01
DAV:   9    -0.307025465897E+03    0.14820E-02   -0.21694E-02 67620   0.664E-01    0.323E-01
DAV:  10    -0.307024937596E+03    0.52830E-03   -0.49773E-03 64536   0.296E-01    0.241E-01
DAV:  11    -0.307025084031E+03   -0.14643E-03   -0.19874E-03 59556   0.198E-01    0.217E-01
DAV:  12    -0.307025449091E+03   -0.36506E-03   -0.25613E-03 59688   0.219E-01    0.180E-01
DAV:  13    -0.307026110239E+03   -0.66115E-03   -0.41714E-03 67980   0.275E-01    0.191E-01
DAV:  14    -0.307025822547E+03    0.28769E-03   -0.36127E-03 60780   0.289E-01    0.974E-02
DAV:  15    -0.307025772580E+03    0.49967E-04   -0.11198E-03 57984   0.156E-01    0.497E-02
DAV:  16    -0.307025736676E+03    0.35904E-04   -0.23115E-04 32508   0.933E-02
   5 F= -.30702574E+03 E0= -.30702384E+03  d E =-.890359E-01
       N       E                     dE             d eps       ncg     rms          rms(c)
DAV:   1    -0.306986404982E+03    0.39368E-01   -0.31400E+01 43704   0.191E+01    0.203E+00
DAV:   2    -0.307263325125E+03   -0.27692E+00   -0.30229E+00 69288   0.871E+00    0.362E+00
DAV:   3    -0.307145872751E+03    0.11745E+00   -0.10986E+00 69684   0.483E+00    0.172E+00
DAV:   4    -0.307127369520E+03    0.18503E-01   -0.31353E-01 73548   0.263E+00    0.130E+00
DAV:   5    -0.307120511942E+03    0.68576E-02   -0.22608E-01 69492   0.229E+00    0.117E+00
DAV:   6    -0.307111517615E+03    0.89943E-02   -0.12914E-01 71328   0.174E+00    0.778E-01
DAV:   7    -0.307109665020E+03    0.18526E-02   -0.91012E-02 73920   0.130E+00    0.713E-01
DAV:   8    -0.307106431266E+03    0.32338E-02   -0.51492E-02 73224   0.102E+00    0.412E-01
DAV:   9    -0.307104637113E+03    0.17942E-02   -0.15289E-02 67068   0.511E-01    0.215E-01
DAV:  10    -0.307104413490E+03    0.22362E-03   -0.38563E-03 62412   0.242E-01    0.161E-01
DAV:  11    -0.307104411019E+03    0.24706E-05   -0.12228E-03 55980   0.150E-01    0.129E-01
DAV:  12    -0.307104596687E+03   -0.18567E-03   -0.15609E-03 57252   0.188E-01    0.137E-01
DAV:  13    -0.307104586656E+03    0.10030E-04   -0.21514E-03 56460   0.218E-01    0.108E-01
DAV:  14    -0.307104533615E+03    0.53042E-04   -0.14633E-03 54864   0.182E-01    0.763E-02
DAV:  15    -0.307104488976E+03    0.44639E-04   -0.58733E-04 43596   0.138E-01
   6 F= -.30710449E+03 E0= -.30710327E+03  d E =-.787523E-01
       N       E                     dE             d eps       ncg     rms          rms(c)
DAV:   1    -0.307103873142E+03    0.66047E-03   -0.21384E-01 41796   0.159E+00    0.176E-01
DAV:   2    -0.307106074856E+03   -0.22017E-02   -0.23506E-02 69960   0.799E-01    0.312E-01
DAV:   3    -0.307105278796E+03    0.79606E-03   -0.83611E-03 69924   0.438E-01    0.148E-01
DAV:   4    -0.307105134095E+03    0.14470E-03   -0.21979E-03 59568   0.223E-01    0.109E-01
DAV:   5    -0.307105068035E+03    0.66060E-04   -0.15183E-03 57576   0.191E-01    0.939E-02
DAV:   6    -0.307105004399E+03    0.63636E-04   -0.75150E-04 47916   0.143E-01
   7 F= -.30710500E+03 E0= -.30710381E+03  d E =-.792677E-01
       N       E                     dE             d eps       ncg     rms          rms(c)
DAV:   1    -0.307121138611E+03   -0.16071E-01   -0.43961E+00 41304   0.619E+00    0.645E-01
DAV:   2    -0.307155549468E+03   -0.34411E-01   -0.33190E-01 68064   0.314E+00    0.152E+00
DAV:   3    -0.307135803998E+03    0.19745E-01   -0.15076E-01 67176   0.204E+00    0.468E-01
DAV:   4    -0.307134893613E+03    0.91038E-03   -0.24031E-02 69384   0.684E-01    0.391E-01
DAV:   5    -0.307133546977E+03    0.13466E-02   -0.18726E-02 70056   0.583E-01    0.321E-01
DAV:   6    -0.307132885151E+03    0.66183E-03   -0.12806E-02 63720   0.499E-01    0.248E-01
DAV:   7    -0.307132687508E+03    0.19764E-03   -0.89118E-03 62904   0.374E-01    0.208E-01
DAV:   8    -0.307132457363E+03    0.23015E-03   -0.54485E-03 61236   0.326E-01    0.186E-01
DAV:   9    -0.307132127610E+03    0.32975E-03   -0.23182E-03 58272   0.223E-01    0.653E-02
DAV:  10    -0.307132086920E+03    0.40690E-04   -0.47612E-04 41652   0.108E-01
   8 F= -.30713209E+03 E0= -.30713139E+03  d E =-.270825E-01
       N       E                     dE             d eps       ncg     rms          rms(c)
DAV:   1    -0.307121084911E+03    0.11043E-01   -0.10102E+01 41304   0.940E+00    0.984E-01
DAV:   2    -0.307199442153E+03   -0.78357E-01   -0.75916E-01 68280   0.476E+00    0.226E+00
DAV:   3    -0.307155542865E+03    0.43899E-01   -0.34749E-01 67320   0.310E+00    0.719E-01
DAV:   4    -0.307153165397E+03    0.23775E-02   -0.54808E-02 72468   0.103E+00    0.575E-01
DAV:   5    -0.307150082798E+03    0.30826E-02   -0.41690E-02 69684   0.832E-01    0.479E-01
DAV:   6    -0.307148915769E+03    0.11670E-02   -0.30587E-02 69924   0.761E-01    0.407E-01
DAV:   7    -0.307148416504E+03    0.49927E-03   -0.22040E-02 64308   0.603E-01    0.339E-01
DAV:   8    -0.307147646308E+03    0.77020E-03   -0.12821E-02 65544   0.496E-01    0.261E-01
DAV:   9    -0.307146963677E+03    0.68263E-03   -0.49607E-03 61692   0.318E-01    0.105E-01
DAV:  10    -0.307146880541E+03    0.83137E-04   -0.13864E-03 57744   0.159E-01    0.685E-02
DAV:  11    -0.307146844544E+03    0.35997E-04   -0.54911E-04 43776   0.112E-01
   9 F= -.30714684E+03 E0= -.30714686E+03  d E =-.418401E-01
       N       E                     dE             d eps       ncg     rms          rms(c)
DAV:   1    -0.307152132543E+03   -0.52520E-02   -0.32588E+00 41304   0.543E+00    0.521E-01
DAV:   2    -0.307170714389E+03   -0.18582E-01   -0.19881E-01 68952   0.237E+00    0.918E-01
DAV:   3    -0.307164621953E+03    0.60924E-02   -0.87438E-02 68472   0.148E+00    0.527E-01
DAV:   4    -0.307163020573E+03    0.16014E-02   -0.23927E-02 64164   0.727E-01    0.335E-01
DAV:   5    -0.307161778335E+03    0.12422E-02   -0.11219E-02 66396   0.432E-01    0.218E-01
DAV:   6    -0.307161652744E+03    0.12559E-03   -0.61034E-03 64284   0.369E-01    0.226E-01
DAV:   7    -0.307161448512E+03    0.20423E-03   -0.60559E-03 61332   0.366E-01    0.175E-01
DAV:   8    -0.307161200322E+03    0.24819E-03   -0.31761E-03 61992   0.259E-01    0.116E-01
DAV:   9    -0.307161035452E+03    0.16487E-03   -0.13332E-03 56628   0.163E-01    0.556E-02
DAV:  10    -0.307161002317E+03    0.33135E-04   -0.17759E-04 27192   0.990E-02
  10 F= -.30716100E+03 E0= -.30716127E+03  d E =-.141578E-01
       N       E                     dE             d eps       ncg     rms          rms(c)
DAV:   1    -0.307153728577E+03    0.73069E-02   -0.47496E+00 41280   0.656E+00    0.620E-01
DAV:   2    -0.307179037927E+03   -0.25309E-01   -0.27732E-01 68520   0.283E+00    0.105E+00
DAV:   3    -0.307171997091E+03    0.70408E-02   -0.11787E-01 68280   0.173E+00    0.638E-01
DAV:   4    -0.307169498231E+03    0.24989E-02   -0.33512E-02 67704   0.862E-01    0.384E-01
DAV:   5    -0.307167719903E+03    0.17783E-02   -0.15027E-02 67236   0.480E-01    0.244E-01
DAV:   6    -0.307167581974E+03    0.13793E-03   -0.79902E-03 66324   0.414E-01    0.255E-01
DAV:   7    -0.307167413957E+03    0.16802E-03   -0.85630E-03 62268   0.435E-01    0.218E-01
DAV:   8    -0.307166973615E+03    0.44034E-03   -0.43288E-03 63552   0.309E-01    0.128E-01
DAV:   9    -0.307166774019E+03    0.19960E-03   -0.16501E-03 59316   0.167E-01    0.595E-02
DAV:  10    -0.307166739265E+03    0.34754E-04   -0.23344E-04 31368   0.105E-01
  11 F= -.30716674E+03 E0= -.30716731E+03  d E =-.198947E-01
       N       E                     dE             d eps       ncg     rms          rms(c)
DAV:   1    -0.307176136465E+03   -0.93624E-02   -0.37385E+00 41280   0.698E+00    0.134E+00
DAV:   2    -0.307196063234E+03   -0.19927E-01   -0.41729E-01 70632   0.294E+00    0.120E+00
DAV:   3    -0.307196865629E+03   -0.80240E-03   -0.30102E-01 72504   0.243E+00    0.131E+00
DAV:   4    -0.307185583975E+03    0.11282E-01   -0.15578E-01 70308   0.191E+00    0.851E-01
DAV:   5    -0.307177809232E+03    0.77747E-02   -0.79066E-02 70812   0.121E+00    0.516E-01
DAV:   6    -0.307175969722E+03    0.18395E-02   -0.36596E-02 70368   0.849E-01    0.377E-01
DAV:   7    -0.307175111947E+03    0.85777E-03   -0.15776E-02 72960   0.559E-01    0.242E-01
DAV:   8    -0.307174781082E+03    0.33087E-03   -0.68179E-03 62748   0.354E-01    0.175E-01
DAV:   9    -0.307174573822E+03    0.20726E-03   -0.21183E-03 61308   0.212E-01    0.121E-01
DAV:  10    -0.307174551250E+03    0.22572E-04   -0.74010E-04 47388   0.136E-01
  12 F= -.30717455E+03 E0= -.30717536E+03  d E =-.781198E-02
       N       E                     dE             d eps       ncg     rms          rms(c)
DAV:   1    -0.307174615664E+03   -0.41842E-04   -0.52091E-03 58248   0.272E-01    0.923E-02
DAV:   2    -0.307175467492E+03   -0.85183E-03   -0.59741E-03 66804   0.359E-01    0.280E-01
DAV:   3    -0.307174599287E+03    0.86821E-03   -0.46886E-03 59760   0.304E-01    0.700E-02
DAV:   4    -0.307174591115E+03    0.81719E-05   -0.66386E-04 47928   0.116E-01
  13 F= -.30717459E+03 E0= -.30717541E+03  d E =-.785185E-02
       N       E                     dE             d eps       ncg     rms          rms(c)
DAV:   1    -0.307178667719E+03   -0.40684E-02   -0.98577E-01 41280   0.318E+00    0.369E-01
DAV:   2    -0.307185813055E+03   -0.71453E-02   -0.87591E-02 68952   0.153E+00    0.567E-01
DAV:   3    -0.307183642508E+03    0.21705E-02   -0.38346E-02 67956   0.962E-01    0.372E-01
DAV:   4    -0.307182984538E+03    0.65797E-03   -0.13982E-02 60408   0.537E-01    0.269E-01
DAV:   5    -0.307182345493E+03    0.63905E-03   -0.60639E-03 62376   0.360E-01    0.177E-01
DAV:   6    -0.307182150868E+03    0.19462E-03   -0.32991E-03 64764   0.261E-01    0.122E-01
DAV:   7    -0.307182096432E+03    0.54435E-04   -0.26211E-03 65496   0.223E-01    0.116E-01
DAV:   8    -0.307182040198E+03    0.56235E-04   -0.19281E-03 59208   0.215E-01    0.101E-01
DAV:   9    -0.307181927607E+03    0.11259E-03   -0.66530E-04 44892   0.129E-01    0.360E-02
DAV:  10    -0.307181917911E+03    0.96963E-05   -0.10415E-04 26832   0.617E-02
  14 F= -.30718192E+03 E0= -.30718280E+03  d E =-.732680E-02
       N       E                     dE             d eps       ncg     rms          rms(c)
DAV:   1    -0.307162460759E+03    0.19467E-01   -0.88529E+00 41280   0.952E+00    0.110E+00
DAV:   2    -0.307229689668E+03   -0.67229E-01   -0.79628E-01 68988   0.473E+00    0.174E+00
DAV:   3    -0.307205192794E+03    0.24497E-01   -0.33965E-01 68904   0.289E+00    0.101E+00
DAV:   4    -0.307200724305E+03    0.44685E-02   -0.11713E-01 69840   0.157E+00    0.783E-01
DAV:   5    -0.307195408014E+03    0.53163E-02   -0.51901E-02 71820   0.105E+00    0.506E-01
DAV:   6    -0.307193634071E+03    0.17739E-02   -0.26650E-02 71124   0.714E-01    0.331E-01
DAV:   7    -0.307193337330E+03    0.29674E-03   -0.20934E-02 76356   0.592E-01    0.325E-01
DAV:   8    -0.307192581738E+03    0.75559E-03   -0.12141E-02 74376   0.509E-01    0.220E-01
DAV:   9    -0.307192057209E+03    0.52453E-03   -0.40983E-03 63048   0.296E-01    0.115E-01
DAV:  10    -0.307191996068E+03    0.61141E-04   -0.10727E-03 54252   0.142E-01    0.802E-02
DAV:  11    -0.307192008397E+03   -0.12329E-04   -0.42455E-04 39516   0.115E-01
  15 F= -.30719201E+03 E0= -.30719312E+03  d E =-.174173E-01
       N       E                     dE             d eps       ncg     rms          rms(c)
DAV:   1    -0.307195113721E+03   -0.31177E-02   -0.13519E+00 41868   0.369E+00    0.323E-01
DAV:   2    -0.307202977971E+03   -0.78643E-02   -0.92248E-02 68136   0.154E+00    0.400E-01
DAV:   3    -0.307202286740E+03    0.69123E-03   -0.26589E-02 70044   0.765E-01    0.325E-01
DAV:   4    -0.307201524259E+03    0.76248E-03   -0.91979E-03 58548   0.468E-01    0.198E-01
DAV:   5    -0.307201124739E+03    0.39952E-03   -0.33066E-03 63108   0.242E-01    0.127E-01
DAV:   6    -0.307201277677E+03   -0.15294E-03   -0.28674E-03 61368   0.254E-01    0.178E-01
DAV:   7    -0.307200984956E+03    0.29272E-03   -0.24861E-03 61164   0.237E-01    0.901E-02
DAV:   8    -0.307200910158E+03    0.74798E-04   -0.10436E-03 51492   0.159E-01    0.667E-02
DAV:   9    -0.307200853447E+03    0.56712E-04   -0.20171E-04 29856   0.103E-01
  16 F= -.30720085E+03 E0= -.30720212E+03  d E =-.884505E-02
       N       E                     dE             d eps       ncg     rms          rms(c)
DAV:   1    -0.307166058824E+03    0.34851E-01   -0.12129E+01 41844   0.110E+01    0.987E-01
DAV:   2    -0.307243676610E+03   -0.77618E-01   -0.86079E-01 68748   0.468E+00    0.130E+00
DAV:   3    -0.307229879935E+03    0.13797E-01   -0.23850E-01 71688   0.232E+00    0.886E-01
DAV:   4    -0.307226826778E+03    0.30532E-02   -0.87550E-02 67236   0.149E+00    0.737E-01
DAV:   5    -0.307221599225E+03    0.52276E-02   -0.41763E-02 66756   0.898E-01    0.405E-01
DAV:   6    -0.307221931358E+03   -0.33213E-03   -0.23526E-02 62940   0.683E-01    0.465E-01
DAV:   7    -0.307220430357E+03    0.15010E-02   -0.18920E-02 72576   0.611E-01    0.285E-01
DAV:   8    -0.307219423678E+03    0.10067E-02   -0.98551E-03 71688   0.388E-01    0.164E-01
DAV:   9    -0.307219090537E+03    0.33314E-03   -0.27512E-03 64704   0.247E-01    0.992E-02
DAV:  10    -0.307219048812E+03    0.41725E-04   -0.12716E-03 56832   0.159E-01    0.671E-02
DAV:  11    -0.307219011770E+03    0.37042E-04   -0.38110E-04 39624   0.110E-01
  17 F= -.30721901E+03 E0= -.30722066E+03  d E =-.270034E-01
       N       E                     dE             d eps       ncg     rms          rms(c)
DAV:   1    -0.306987606480E+03    0.23144E+00   -0.48395E+01 41856   0.222E+01    0.218E+00
DAV:   2    -0.307328377783E+03   -0.34077E+00   -0.36774E+00 69300   0.946E+00    0.286E+00
DAV:   3    -0.307252959428E+03    0.75418E-01   -0.11150E+00 72840   0.488E+00    0.190E+00
DAV:   4    -0.307242230723E+03    0.10729E-01   -0.42694E-01 67380   0.322E+00    0.165E+00
DAV:   5    -0.307214622387E+03    0.27608E-01   -0.18018E-01 67944   0.187E+00    0.785E-01
DAV:   6    -0.307216971982E+03   -0.23496E-02   -0.88314E-02 68700   0.135E+00    0.978E-01
DAV:   7    -0.307210650757E+03    0.63212E-02   -0.76324E-02 69300   0.130E+00    0.580E-01
DAV:   8    -0.307206578034E+03    0.40727E-02   -0.41755E-02 71628   0.785E-01    0.336E-01
DAV:   9    -0.307205090912E+03    0.14871E-02   -0.12259E-02 78420   0.506E-01    0.213E-01
DAV:  10    -0.307204922102E+03    0.16881E-03   -0.60534E-03 65712   0.351E-01    0.156E-01
DAV:  11    -0.307204715008E+03    0.20709E-03   -0.19782E-03 60396   0.211E-01    0.878E-02
DAV:  12    -0.307204674481E+03    0.40527E-04   -0.88676E-04 50940   0.147E-01
  18 F= -.30720467E+03 E0= -.30720626E+03  d E =-.126661E-01
       N       E                     dE             d eps       ncg     rms          rms(c)
DAV:   1    -0.307104377496E+03    0.10034E+00   -0.26378E+01 41808   0.163E+01    0.157E+00
DAV:   2    -0.307276368886E+03   -0.17199E+00   -0.19130E+00 68184   0.732E+00    0.204E+00
DAV:   3    -0.307249225399E+03    0.27143E-01   -0.56430E-01 70488   0.378E+00    0.133E+00
DAV:   4    -0.307236062203E+03    0.13163E-01   -0.15910E-01 69096   0.198E+00    0.914E-01
DAV:   5    -0.307227866434E+03    0.81958E-02   -0.70201E-02 71604   0.117E+00    0.613E-01
DAV:   6    -0.307229308269E+03   -0.14418E-02   -0.49575E-02 65520   0.109E+00    0.714E-01
DAV:   7    -0.307224493098E+03    0.48152E-02   -0.37620E-02 70380   0.899E-01    0.356E-01
DAV:   8    -0.307223167939E+03    0.13252E-02   -0.15911E-02 71892   0.571E-01    0.257E-01
DAV:   9    -0.307222439383E+03    0.72856E-03   -0.61597E-03 65364   0.368E-01    0.113E-01
DAV:  10    -0.307222497532E+03   -0.58149E-04   -0.24867E-03 62784   0.219E-01    0.126E-01
DAV:  11    -0.307222365330E+03    0.13220E-03   -0.12870E-03 53292   0.172E-01    0.709E-02
DAV:  12    -0.307222311571E+03    0.53759E-04   -0.38954E-04 38064   0.108E-01
  19 F= -.30722231E+03 E0= -.30722405E+03  d E =-.303032E-01
       N       E                     dE             d eps       ncg     rms          rms(c)
DAV:   1    -0.307215095230E+03    0.72701E-02   -0.46381E+00 41280   0.735E+00    0.779E-01
DAV:   2    -0.307263505419E+03   -0.48410E-01   -0.47769E-01 69828   0.346E+00    0.149E+00
DAV:   3    -0.307244418286E+03    0.19087E-01   -0.19328E-01 69816   0.216E+00    0.713E-01
DAV:   4    -0.307241523109E+03    0.28952E-02   -0.47459E-02 70500   0.989E-01    0.456E-01
DAV:   5    -0.307239495544E+03    0.20276E-02   -0.22933E-02 68664   0.624E-01    0.325E-01
DAV:   6    -0.307239665490E+03   -0.16995E-03   -0.16057E-02 67812   0.592E-01    0.349E-01
DAV:   7    -0.307238882892E+03    0.78260E-03   -0.10349E-02 69444   0.493E-01    0.200E-01
DAV:   8    -0.307238308954E+03    0.57394E-03   -0.49847E-03 69816   0.261E-01    0.108E-01
DAV:   9    -0.307238220383E+03    0.88571E-04   -0.14899E-03 59988   0.161E-01    0.920E-02
DAV:  10    -0.307238157589E+03    0.62794E-04   -0.52542E-04 44376   0.120E-01
  20 F= -.30723816E+03 E0= -.30724007E+03  d E =-.158460E-01
       N       E                     dE             d eps       ncg     rms          rms(c)
DAV:   1    -0.307176300070E+03    0.61920E-01   -0.14195E+01 41280   0.129E+01    0.137E+00
DAV:   2    -0.307331004626E+03   -0.15470E+00   -0.15000E+00 69984   0.610E+00    0.268E+00
DAV:   3    -0.307264816308E+03    0.66188E-01   -0.60544E-01 70464   0.380E+00    0.121E+00
DAV:   4    -0.307257858370E+03    0.69579E-02   -0.15028E-01 71256   0.174E+00    0.840E-01
DAV:   5    -0.307250459139E+03    0.73992E-02   -0.71174E-02 69528   0.109E+00    0.545E-01
DAV:   6    -0.307251541433E+03   -0.10823E-02   -0.48569E-02 70524   0.103E+00    0.637E-01
DAV:   7    -0.307248783388E+03    0.27580E-02   -0.32606E-02 76344   0.879E-01    0.344E-01
DAV:   8    -0.307247114797E+03    0.16686E-02   -0.14808E-02 75780   0.465E-01    0.197E-01
DAV:   9    -0.307246837462E+03    0.27733E-03   -0.46287E-03 65100   0.290E-01    0.163E-01
DAV:  10    -0.307246677271E+03    0.16019E-03   -0.18897E-03 60696   0.203E-01    0.985E-02
DAV:  11    -0.307246640678E+03    0.36592E-04   -0.37368E-04 38532   0.105E-01
  21 F= -.30724664E+03 E0= -.30724863E+03  d E =-.243291E-01
       N       E                     dE             d eps       ncg     rms          rms(c)
DAV:   1    -0.307249130041E+03   -0.24528E-02   -0.89176E-01 41280   0.323E+00    0.403E-01
DAV:   2    -0.307260036606E+03   -0.10907E-01   -0.10781E-01 69768   0.178E+00    0.806E-01
DAV:   3    -0.307253765521E+03    0.62711E-02   -0.49847E-02 69576   0.111E+00    0.330E-01
DAV:   4    -0.307253269865E+03    0.49566E-03   -0.13771E-02 61164   0.514E-01    0.272E-01
DAV:   5    -0.307252733989E+03    0.53588E-03   -0.87542E-03 62736   0.436E-01    0.203E-01
DAV:   6    -0.307252444142E+03    0.28985E-03   -0.43741E-03 62316   0.301E-01    0.131E-01
DAV:   7    -0.307252417945E+03    0.26197E-04   -0.31811E-03 64812   0.252E-01    0.129E-01
DAV:   8    -0.307252277948E+03    0.14000E-03   -0.15501E-03 57660   0.200E-01    0.717E-02
DAV:   9    -0.307252204946E+03    0.73002E-04   -0.38362E-04 37068   0.122E-01
  22 F= -.30725220E+03 E0= -.30725416E+03  d E =-.556427E-02
       N       E                     dE             d eps       ncg     rms          rms(c)
DAV:   1    -0.307241522169E+03    0.10756E-01   -0.44363E+00 41328   0.721E+00    0.884E-01
DAV:   2    -0.307294682897E+03   -0.53161E-01   -0.52620E-01 69864   0.384E+00    0.175E+00
DAV:   3    -0.307265179544E+03    0.29503E-01   -0.24267E-01 69276   0.244E+00    0.742E-01
DAV:   4    -0.307262063106E+03    0.31164E-02   -0.66382E-02 69744   0.111E+00    0.534E-01
DAV:   5    -0.307259752613E+03    0.23105E-02   -0.36688E-02 66672   0.844E-01    0.405E-01
DAV:   6    -0.307258829712E+03    0.92290E-03   -0.19389E-02 71928   0.666E-01    0.298E-01
DAV:   7    -0.307258504542E+03    0.32517E-03   -0.13942E-02 74040   0.526E-01    0.251E-01
DAV:   8    -0.307257927254E+03    0.57729E-03   -0.53022E-03 65856   0.328E-01    0.136E-01
DAV:   9    -0.307257766096E+03    0.16116E-03   -0.17136E-03 61332   0.197E-01    0.965E-02
DAV:  10    -0.307257734425E+03    0.31670E-04   -0.67836E-04 47484   0.130E-01
  23 F= -.30725773E+03 E0= -.30725955E+03  d E =-.110937E-01
       N       E                     dE             d eps       ncg     rms          rms(c)
DAV:   1    -0.307261730815E+03   -0.39647E-02   -0.12297E-01 42096   0.122E+00    0.170E-01
DAV:   2    -0.307263214765E+03   -0.14840E-02   -0.15119E-02 69660   0.628E-01    0.300E-01
DAV:   3    -0.307262399850E+03    0.81492E-03   -0.84526E-03 65544   0.452E-01    0.147E-01
DAV:   4    -0.307262330956E+03    0.68894E-04   -0.23964E-03 62376   0.225E-01    0.112E-01
DAV:   5    -0.307262200370E+03    0.13059E-03   -0.13821E-03 56940   0.168E-01    0.613E-02
DAV:   6    -0.307262178708E+03    0.21662E-04   -0.47049E-04 41748   0.132E-01
  24 F= -.30726218E+03 E0= -.30726405E+03  d E =-.444428E-02
       N       E                     dE             d eps       ncg     rms          rms(c)
DAV:   1    -0.307268152422E+03   -0.59521E-02   -0.10944E+00 41280   0.361E+00    0.492E-01
DAV:   2    -0.307277777583E+03   -0.96252E-02   -0.11576E-01 70080   0.176E+00    0.695E-01
DAV:   3    -0.307274456979E+03    0.33206E-02   -0.57256E-02 70440   0.120E+00    0.461E-01
DAV:   4    -0.307273016142E+03    0.14408E-02   -0.20219E-02 66756   0.640E-01    0.272E-01
DAV:   5    -0.307272210948E+03    0.80519E-03   -0.10205E-02 68172   0.404E-01    0.190E-01
DAV:   6    -0.307272050768E+03    0.16018E-03   -0.56434E-03 61056   0.339E-01    0.162E-01
DAV:   7    -0.307271917875E+03    0.13289E-03   -0.36858E-03 67248   0.275E-01    0.114E-01
DAV:   8    -0.307271806538E+03    0.11134E-03   -0.11194E-03 56904   0.158E-01    0.646E-02
DAV:   9    -0.307271766462E+03    0.40077E-04   -0.21033E-04 29820   0.895E-02
  25 F= -.30727177E+03 E0= -.30727367E+03  d E =-.140320E-01
       N       E                     dE             d eps       ncg     rms          rms(c)
DAV:   1    -0.307260208212E+03    0.11598E-01   -0.43976E+00 41280   0.725E+00    0.989E-01
DAV:   2    -0.307297142748E+03   -0.36935E-01   -0.46053E-01 69840   0.352E+00    0.134E+00
DAV:   3    -0.307285971548E+03    0.11171E-01   -0.22369E-01 69888   0.241E+00    0.948E-01
DAV:   4    -0.307279615435E+03    0.63561E-02   -0.82359E-02 72000   0.131E+00    0.544E-01
DAV:   5    -0.307276608547E+03    0.30069E-02   -0.41643E-02 71508   0.847E-01    0.405E-01
DAV:   6    -0.307275650961E+03    0.95759E-03   -0.23248E-02 70992   0.686E-01    0.302E-01
DAV:   7    -0.307275192287E+03    0.45867E-03   -0.13850E-02 72708   0.510E-01    0.231E-01
DAV:   8    -0.307274767971E+03    0.42432E-03   -0.47509E-03 63960   0.322E-01    0.144E-01
DAV:   9    -0.307274615809E+03    0.15216E-03   -0.17581E-03 59904   0.188E-01    0.939E-02
DAV:  10    -0.307274595159E+03    0.20650E-04   -0.57212E-04 45372   0.119E-01
  26 F= -.30727460E+03 E0= -.30727662E+03  d E =-.168607E-01
       N       E                     dE             d eps       ncg     rms          rms(c)
DAV:   1    -0.307295683463E+03   -0.21068E-01   -0.58652E-01 57756   0.370E+00    0.994E-01
DAV:   2    -0.307297742302E+03   -0.20588E-02   -0.15252E-01 78288   0.169E+00    0.882E-01
DAV:   3    -0.307294184009E+03    0.35583E-02   -0.16572E-01 72264   0.153E+00    0.907E-01
DAV:   4    -0.307290405301E+03    0.37787E-02   -0.89700E-02 68832   0.144E+00    0.667E-01
DAV:   5    -0.307285313197E+03    0.50921E-02   -0.35026E-02 75372   0.839E-01    0.290E-01
DAV:   6    -0.307284971123E+03    0.34207E-03   -0.19619E-02 72948   0.607E-01    0.311E-01
DAV:   7    -0.307284315715E+03    0.65541E-03   -0.11205E-02 65832   0.495E-01    0.196E-01
DAV:   8    -0.307284047477E+03    0.26824E-03   -0.40222E-03 64212   0.279E-01    0.114E-01
DAV:   9    -0.307283970466E+03    0.77010E-04   -0.10600E-03 53616   0.154E-01    0.829E-02
DAV:  10    -0.307283929866E+03    0.40600E-04   -0.16614E-04 27744   0.902E-02
  27 F= -.30728393E+03 E0= -.30728605E+03  d E =-.933471E-02
       N       E                     dE             d eps       ncg     rms          rms(c)
DAV:   1    -0.307290298983E+03   -0.63285E-02   -0.26389E-01 57792   0.247E+00    0.641E-01
DAV:   2    -0.307291529016E+03   -0.12300E-02   -0.66081E-02 78132   0.115E+00    0.597E-01
DAV:   3    -0.307289999469E+03    0.15295E-02   -0.74557E-02 71004   0.107E+00    0.618E-01
DAV:   4    -0.307287931251E+03    0.20682E-02   -0.40465E-02 63372   0.956E-01    0.425E-01
DAV:   5    -0.307286034870E+03    0.18964E-02   -0.16545E-02 74952   0.573E-01    0.213E-01
DAV:   6    -0.307285856038E+03    0.17883E-03   -0.87779E-03 67476   0.437E-01    0.212E-01
DAV:   7    -0.307285546943E+03    0.30910E-03   -0.44073E-03 62976   0.311E-01    0.121E-01
DAV:   8    -0.307285457281E+03    0.89661E-04   -0.14647E-03 59520   0.168E-01    0.794E-02
DAV:   9    -0.307285424997E+03    0.32284E-04   -0.20882E-04 30216   0.101E-01
  28 F= -.30728542E+03 E0= -.30728761E+03  d E =-.108298E-01
       N       E                     dE             d eps       ncg     rms          rms(c)
DAV:   1    -0.307288732133E+03   -0.32749E-02   -0.18475E-01 41280   0.134E+00    0.155E-01
DAV:   2    -0.307290321994E+03   -0.15899E-02   -0.17268E-02 69012   0.662E-01    0.304E-01
DAV:   3    -0.307289527114E+03    0.79488E-03   -0.75102E-03 62700   0.433E-01    0.134E-01
DAV:   4    -0.307289422132E+03    0.10498E-03   -0.16054E-03 57816   0.191E-01    0.958E-02
DAV:   5    -0.307289364685E+03    0.57447E-04   -0.88816E-04 51432   0.133E-01
  29 F= -.30728936E+03 E0= -.30729161E+03  d E =-.393969E-02
       N       E                     dE             d eps       ncg     rms          rms(c)
DAV:   1    -0.307291234970E+03   -0.18128E-02   -0.16575E+00 41280   0.400E+00    0.429E-01
DAV:   2    -0.307304950312E+03   -0.13715E-01   -0.14369E-01 67836   0.196E+00    0.900E-01
DAV:   3    -0.307297719688E+03    0.72306E-02   -0.62636E-02 66480   0.124E+00    0.344E-01
DAV:   4    -0.307297031988E+03    0.68770E-03   -0.12303E-02 64968   0.507E-01    0.239E-01
DAV:   5    -0.307296495194E+03    0.53679E-03   -0.73330E-03 69156   0.341E-01    0.173E-01
DAV:   6    -0.307296424901E+03    0.70293E-04   -0.43086E-03 69612   0.303E-01    0.162E-01
DAV:   7    -0.307296309989E+03    0.11491E-03   -0.35457E-03 61236   0.290E-01    0.134E-01
DAV:   8    -0.307296154472E+03    0.15552E-03   -0.17734E-03 60084   0.196E-01    0.765E-02
DAV:   9    -0.307296089347E+03    0.65125E-04   -0.45064E-04 41892   0.112E-01
  30 F= -.30729609E+03 E0= -.30729843E+03  d E =-.106643E-01
       N       E                     dE             d eps       ncg     rms          rms(c)
DAV:   1    -0.307299558622E+03   -0.34042E-02   -0.34992E-01 41280   0.189E+00    0.178E-01
DAV:   2    -0.307301826069E+03   -0.22674E-02   -0.26065E-02 68040   0.795E-01    0.280E-01
DAV:   3    -0.307301319719E+03    0.50635E-03   -0.88591E-03 68076   0.467E-01    0.179E-01
DAV:   4    -0.307301109756E+03    0.20996E-03   -0.26964E-03 60036   0.246E-01    0.109E-01
DAV:   5    -0.307301001006E+03    0.10875E-03   -0.12746E-03 55476   0.153E-01    0.799E-02
DAV:   6    -0.307300997897E+03    0.31098E-05   -0.75762E-04 46224   0.152E-01
  31 F= -.30730100E+03 E0= -.30730342E+03  d E =-.490855E-02
       N       E                     dE             d eps       ncg     rms          rms(c)
DAV:   1    -0.307300282065E+03    0.71894E-03   -0.31426E+00 41280   0.565E+00    0.533E-01
DAV:   2    -0.307319456709E+03   -0.19175E-01   -0.22421E-01 68328   0.231E+00    0.772E-01
DAV:   3    -0.307315309931E+03    0.41468E-02   -0.72053E-02 69720   0.130E+00    0.522E-01
DAV:   4    -0.307313852407E+03    0.14575E-02   -0.25570E-02 63816   0.760E-01    0.371E-01
DAV:   5    -0.307312472777E+03    0.13796E-02   -0.12349E-02 64080   0.472E-01    0.223E-01
DAV:   6    -0.307312719872E+03   -0.24709E-03   -0.78315E-03 60276   0.440E-01    0.272E-01
DAV:   7    -0.307312239621E+03    0.48025E-03   -0.74888E-03 70932   0.408E-01    0.170E-01
DAV:   8    -0.307311853369E+03    0.38625E-03   -0.23652E-03 63144   0.202E-01    0.666E-02
DAV:   9    -0.307311814359E+03    0.39010E-04   -0.62103E-04 48156   0.952E-02
  32 F= -.30731181E+03 E0= -.30731431E+03  d E =-.157250E-01
       N       E                     dE             d eps       ncg     rms          rms(c)
DAV:   1    -0.307269314175E+03    0.42539E-01   -0.12584E+01 41280   0.113E+01    0.107E+00
DAV:   2    -0.307343508641E+03   -0.74194E-01   -0.89117E-01 68244   0.460E+00    0.147E+00
DAV:   3    -0.307331856899E+03    0.11652E-01   -0.28890E-01 68856   0.267E+00    0.111E+00
DAV:   4    -0.307323267151E+03    0.85897E-02   -0.95723E-02 68820   0.151E+00    0.647E-01
DAV:   5    -0.307318904915E+03    0.43622E-02   -0.42068E-02 71412   0.851E-01    0.428E-01
DAV:   6    -0.307319459779E+03   -0.55486E-03   -0.28822E-02 70524   0.833E-01    0.505E-01
DAV:   7    -0.307318105380E+03    0.13544E-02   -0.27534E-02 74292   0.785E-01    0.348E-01
DAV:   8    -0.307316550244E+03    0.15551E-02   -0.90575E-03 65412   0.399E-01    0.135E-01
DAV:   9    -0.307316383910E+03    0.16633E-03   -0.26526E-03 61944   0.182E-01    0.932E-02
DAV:  10    -0.307316411289E+03   -0.27379E-04   -0.11270E-03 53712   0.158E-01    0.966E-02
DAV:  11    -0.307316359490E+03    0.51799E-04   -0.50994E-04 41748   0.126E-01
  33 F= -.30731636E+03 E0= -.30731897E+03  d E =-.202701E-01
       N       E                     dE             d eps       ncg     rms          rms(c)
DAV:   1    -0.307349372420E+03   -0.32961E-01   -0.11796E+00 56568   0.514E+00    0.137E+00
DAV:   2    -0.307353731398E+03   -0.43590E-02   -0.29033E-01 77616   0.238E+00    0.125E+00
DAV:   3    -0.307348421496E+03    0.53099E-02   -0.33846E-01 72012   0.218E+00    0.131E+00
DAV:   4    -0.307338743449E+03    0.96780E-02   -0.15902E-01 70104   0.194E+00    0.843E-01
DAV:   5    -0.307330711965E+03    0.80315E-02   -0.64976E-02 75312   0.113E+00    0.452E-01
DAV:   6    -0.307329318382E+03    0.13936E-02   -0.39005E-02 72132   0.909E-01    0.406E-01
DAV:   7    -0.307328112601E+03    0.12058E-02   -0.19234E-02 68664   0.648E-01    0.231E-01
DAV:   8    -0.307327798960E+03    0.31364E-03   -0.64757E-03 62724   0.341E-01    0.154E-01
DAV:   9    -0.307327683964E+03    0.11500E-03   -0.17583E-03 60252   0.192E-01    0.114E-01
DAV:  10    -0.307327632596E+03    0.51369E-04   -0.31987E-04 35376   0.113E-01
  34 F= -.30732763E+03 E0= -.30733032E+03  d E =-.112731E-01
       N       E                     dE             d eps       ncg     rms          rms(c)
DAV:   1    -0.307328323090E+03   -0.63913E-03   -0.35071E-02 58020   0.880E-01    0.225E-01
DAV:   2    -0.307328657543E+03   -0.33445E-03   -0.87867E-03 73764   0.442E-01    0.239E-01
DAV:   3    -0.307328389667E+03    0.26788E-03   -0.10200E-02 62904   0.425E-01    0.220E-01
DAV:   4    -0.307328072663E+03    0.31700E-03   -0.35558E-03 61776   0.296E-01    0.119E-01
DAV:   5    -0.307327939887E+03    0.13278E-03   -0.18964E-03 60516   0.197E-01    0.926E-02
DAV:   6    -0.307327883830E+03    0.56058E-04   -0.10626E-03 53136   0.171E-01    0.675E-02
DAV:   7    -0.307327848698E+03    0.35132E-04   -0.26495E-04 32448   0.107E-01
  35 F= -.30732785E+03 E0= -.30733054E+03  d E =-.114892E-01
       N       E                     dE             d eps       ncg     rms          rms(c)
DAV:   1    -0.307331155375E+03   -0.32715E-02   -0.21149E-01 41280   0.145E+00    0.264E-01
DAV:   2    -0.307332608533E+03   -0.14532E-02   -0.21954E-02 70932   0.755E-01    0.353E-01
DAV:   3    -0.307331896459E+03    0.71207E-03   -0.13226E-02 66036   0.581E-01    0.232E-01
DAV:   4    -0.307331551575E+03    0.34488E-03   -0.52327E-03 63540   0.333E-01    0.152E-01
DAV:   5    -0.307331347721E+03    0.20385E-03   -0.31479E-03 63192   0.253E-01    0.121E-01
DAV:   6    -0.307331243433E+03    0.10429E-03   -0.18083E-03 59244   0.208E-01    0.818E-02
DAV:   7    -0.307331196954E+03    0.46479E-04   -0.87980E-04 51432   0.144E-01
  36 F= -.30733120E+03 E0= -.30733383E+03  d E =-.334826E-02
       N       E                     dE             d eps       ncg     rms          rms(c)
DAV:   1    -0.307332222059E+03   -0.97863E-03   -0.35648E-01 41280   0.188E+00    0.312E-01
DAV:   2    -0.307334358024E+03   -0.21360E-02   -0.32303E-02 70140   0.903E-01    0.407E-01
DAV:   3    -0.307333443348E+03    0.91468E-03   -0.18902E-02 67584   0.689E-01    0.280E-01
DAV:   4    -0.307332922799E+03    0.52055E-03   -0.79445E-03 62928   0.410E-01    0.170E-01
DAV:   5    -0.307332599797E+03    0.32300E-03   -0.41821E-03 65136   0.274E-01    0.129E-01
DAV:   6    -0.307332528640E+03    0.71157E-04   -0.21897E-03 61272   0.231E-01    0.104E-01
DAV:   7    -0.307332450377E+03    0.78264E-04   -0.99944E-04 53652   0.157E-01
  37 F= -.30733245E+03 E0= -.30733502E+03  d E =-.460168E-02
       N       E                     dE             d eps       ncg     rms          rms(c)
DAV:   1    -0.307333631287E+03   -0.11026E-02   -0.97988E-02 42408   0.101E+00    0.908E-02
DAV:   2    -0.307334212356E+03   -0.58107E-03   -0.65609E-03 67980   0.391E-01    0.131E-01
DAV:   3    -0.307334134689E+03    0.77667E-04   -0.20812E-03 57072   0.234E-01    0.945E-02
DAV:   4    -0.307334061521E+03    0.73169E-04   -0.52877E-04 42612   0.127E-01
  38 F= -.30733406E+03 E0= -.30733664E+03  d E =-.161114E-02
       N       E                     dE             d eps       ncg     rms          rms(c)
DAV:   1    -0.307334617560E+03   -0.48287E-03   -0.87833E-01 41424   0.301E+00    0.289E-01
DAV:   2    -0.307342012964E+03   -0.73954E-02   -0.74811E-02 68412   0.152E+00    0.583E-01
DAV:   3    -0.307338884933E+03    0.31280E-02   -0.25587E-02 69108   0.831E-01    0.231E-01
DAV:   4    -0.307338711211E+03    0.17372E-03   -0.66189E-03 60252   0.383E-01    0.208E-01
DAV:   5    -0.307338325632E+03    0.38558E-03   -0.37975E-03 59520   0.295E-01    0.135E-01
DAV:   6    -0.307338274109E+03    0.51523E-04   -0.19380E-03 59772   0.200E-01    0.109E-01
DAV:   7    -0.307338220651E+03    0.53458E-04   -0.17145E-03 59736   0.184E-01    0.935E-02
DAV:   8    -0.307338130526E+03    0.90126E-04   -0.85514E-04 48996   0.158E-01
  39 F= -.30733813E+03 E0= -.30734062E+03  d E =-.568015E-02
       N       E                     dE             d eps       ncg     rms          rms(c)
DAV:   1    -0.307329479865E+03    0.87408E-02   -0.35280E+00 42288   0.603E+00    0.536E-01
DAV:   2    -0.307355929206E+03   -0.26449E-01   -0.27330E-01 68136   0.284E+00    0.107E+00
DAV:   3    -0.307345222361E+03    0.10707E-01   -0.87062E-02 69432   0.151E+00    0.415E-01
DAV:   4    -0.307344726204E+03    0.49616E-03   -0.22272E-02 65016   0.701E-01    0.389E-01
DAV:   5    -0.307343429799E+03    0.12964E-02   -0.12410E-02 63756   0.522E-01    0.253E-01
DAV:   6    -0.307343308967E+03    0.12083E-03   -0.70877E-03 64176   0.376E-01    0.221E-01
DAV:   7    -0.307343097592E+03    0.21138E-03   -0.61567E-03 70272   0.352E-01    0.185E-01
DAV:   8    -0.307342740371E+03    0.35722E-03   -0.35154E-03 67920   0.279E-01    0.108E-01
DAV:   9    -0.307342624580E+03    0.11579E-03   -0.11204E-03 52872   0.163E-01    0.570E-02
DAV:  10    -0.307342596329E+03    0.28252E-04   -0.22837E-04 30900   0.989E-02
  40 F= -.30734260E+03 E0= -.30734491E+03  d E =-.101460E-01
       N       E                     dE             d eps       ncg     rms          rms(c)
DAV:   1    -0.307344467678E+03   -0.18431E-02   -0.90222E-02 41292   0.112E+00    0.228E-01
DAV:   2    -0.307344989646E+03   -0.52197E-03   -0.11758E-02 72180   0.521E-01    0.205E-01
DAV:   3    -0.307344975031E+03    0.14615E-04   -0.85076E-03 67824   0.426E-01    0.222E-01
DAV:   4    -0.307344667552E+03    0.30748E-03   -0.49436E-03 59100   0.340E-01    0.150E-01
DAV:   5    -0.307344435324E+03    0.23223E-03   -0.22802E-03 61812   0.220E-01    0.869E-02
DAV:   6    -0.307344402194E+03    0.33131E-04   -0.10179E-03 52632   0.166E-01    0.700E-02
DAV:   7    -0.307344345893E+03    0.56301E-04   -0.26285E-04 32904   0.116E-01
  41 F= -.30734435E+03 E0= -.30734665E+03  d E =-.174956E-02
       N       E                     dE             d eps       ncg     rms          rms(c)
DAV:   1    -0.307347430758E+03   -0.30286E-02   -0.80801E-01 41280   0.337E+00    0.647E-01
DAV:   2    -0.307352018997E+03   -0.45882E-02   -0.96146E-02 70596   0.146E+00    0.580E-01
DAV:   3    -0.307352831471E+03   -0.81247E-03   -0.75884E-02 69456   0.127E+00    0.707E-01
DAV:   4    -0.307349269236E+03    0.35622E-02   -0.43550E-02 62160   0.102E+00    0.371E-01
DAV:   5    -0.307347378670E+03    0.18906E-02   -0.13425E-02 71676   0.466E-01    0.140E-01
DAV:   6    -0.307347338907E+03    0.39763E-04   -0.45159E-03 68100   0.273E-01    0.158E-01
DAV:   7    -0.307347189749E+03    0.14916E-03   -0.26343E-03 62352   0.242E-01    0.114E-01
DAV:   8    -0.307347152396E+03    0.37353E-04   -0.11870E-03 54180   0.177E-01    0.904E-02
DAV:   9    -0.307347108695E+03    0.43701E-04   -0.45292E-04 42744   0.118E-01
  42 F= -.30734711E+03 E0= -.30734940E+03  d E =-.451237E-02
       N       E                     dE             d eps       ncg     rms          rms(c)
DAV:   1    -0.307348511045E+03   -0.13586E-02   -0.35449E-02 56496   0.811E-01    0.197E-01
DAV:   2    -0.307349419598E+03   -0.90855E-03   -0.12731E-02 76020   0.522E-01    0.298E-01
DAV:   3    -0.307348553121E+03    0.86648E-03   -0.97547E-03 62616   0.438E-01    0.169E-01
DAV:   4    -0.307348380252E+03    0.17287E-03   -0.26184E-03 60948   0.244E-01    0.116E-01
DAV:   5    -0.307348352327E+03    0.27924E-04   -0.20029E-03 57792   0.212E-01    0.122E-01
DAV:   6    -0.307348212899E+03    0.13943E-03   -0.12293E-03 53628   0.183E-01    0.539E-02
DAV:   7    -0.307348188630E+03    0.24269E-04   -0.32802E-04 35724   0.110E-01
  43 F= -.30734819E+03 E0= -.30735051E+03  d E =-.107994E-02
       N       E                     dE             d eps       ncg     rms          rms(c)
DAV:   1    -0.307351800350E+03   -0.35875E-02   -0.30768E-01 48600   0.236E+00    0.552E-01
DAV:   2    -0.307354847425E+03   -0.30471E-02   -0.67855E-02 72960   0.127E+00    0.630E-01
DAV:   3    -0.307353129553E+03    0.17179E-02   -0.66877E-02 69468   0.117E+00    0.555E-01
DAV:   4    -0.307350810898E+03    0.23187E-02   -0.24757E-02 60996   0.766E-01    0.282E-01
DAV:   5    -0.307349972067E+03    0.83883E-03   -0.11373E-02 71940   0.441E-01    0.214E-01
DAV:   6    -0.307349706275E+03    0.26579E-03   -0.66175E-03 60840   0.385E-01    0.178E-01
DAV:   7    -0.307349482856E+03    0.22342E-03   -0.30877E-03 59988   0.267E-01    0.100E-01
DAV:   8    -0.307349453577E+03    0.29279E-04   -0.13268E-03 57984   0.171E-01    0.742E-02
DAV:   9    -0.307349415506E+03    0.38071E-04   -0.29212E-04 35808   0.110E-01
  44 F= -.30734942E+03 E0= -.30735172E+03  d E =-.230681E-02
       N       E                     dE             d eps       ncg     rms          rms(c)
DAV:   1    -0.307350320744E+03   -0.86717E-03   -0.44193E-02 41328   0.745E-01    0.142E-01
DAV:   2    -0.307350804801E+03   -0.48406E-03   -0.63061E-03 70932   0.430E-01    0.204E-01
DAV:   3    -0.307350510710E+03    0.29409E-03   -0.43436E-03 60720   0.329E-01    0.122E-01
DAV:   4    -0.307350454343E+03    0.56367E-04   -0.16889E-03 57444   0.195E-01    0.996E-02
DAV:   5    -0.307350392036E+03    0.62308E-04   -0.11473E-03 53112   0.170E-01    0.778E-02
DAV:   6    -0.307350347080E+03    0.44956E-04   -0.58010E-04 44496   0.124E-01
  45 F= -.30735035E+03 E0= -.30735265E+03  d E =-.931574E-03
       N       E                     dE             d eps       ncg     rms          rms(c)
DAV:   1    -0.307351279009E+03   -0.88697E-03   -0.39350E-01 41280   0.221E+00    0.359E-01
DAV:   2    -0.307355361160E+03   -0.40822E-02   -0.50475E-02 70164   0.123E+00    0.570E-01
DAV:   3    -0.307352606551E+03    0.27546E-02   -0.30184E-02 71040   0.865E-01    0.281E-01
DAV:   4    -0.307352546267E+03    0.60284E-04   -0.11295E-02 63048   0.486E-01    0.278E-01
DAV:   5    -0.307351829127E+03    0.71714E-03   -0.79917E-03 59664   0.426E-01    0.176E-01
DAV:   6    -0.307351643003E+03    0.18612E-03   -0.38191E-03 61716   0.285E-01    0.115E-01
DAV:   7    -0.307351539382E+03    0.10362E-03   -0.16291E-03 59460   0.196E-01    0.796E-02
DAV:   8    -0.307351495886E+03    0.43496E-04   -0.68246E-04 46668   0.144E-01
  46 F= -.30735150E+03 E0= -.30735383E+03  d E =-.208038E-02
       N       E                     dE             d eps       ncg     rms          rms(c)
DAV:   1    -0.307351945717E+03   -0.40633E-03   -0.25723E-02 41328   0.521E-01    0.630E-02
DAV:   2    -0.307352086372E+03   -0.14066E-03   -0.19893E-03 66252   0.220E-01    0.669E-02
DAV:   3    -0.307352061847E+03    0.24525E-04   -0.62311E-04 45516   0.119E-01
  47 F= -.30735206E+03 E0= -.30735438E+03  d E =-.565961E-03
       N       E                     dE             d eps       ncg     rms          rms(c)
DAV:   1    -0.307352796634E+03   -0.71026E-03   -0.23121E-01 41280   0.154E+00    0.167E-01
DAV:   2    -0.307353976349E+03   -0.11797E-02   -0.17873E-02 69660   0.657E-01    0.221E-01
DAV:   3    -0.307353680822E+03    0.29553E-03   -0.73509E-03 66084   0.400E-01    0.168E-01
DAV:   4    -0.307353558013E+03    0.12281E-03   -0.28769E-03 60336   0.275E-01    0.123E-01
DAV:   5    -0.307353356350E+03    0.20166E-03   -0.12000E-03 55716   0.157E-01    0.594E-02
DAV:   6    -0.307353363135E+03   -0.67848E-05   -0.69576E-04 47184   0.125E-01
  48 F= -.30735336E+03 E0= -.30735570E+03  d E =-.186725E-02
       N       E                     dE             d eps       ncg     rms          rms(c)
DAV:   1    -0.307354283463E+03   -0.92711E-03   -0.71692E-02 41340   0.109E+00    0.251E-01
DAV:   2    -0.307354703337E+03   -0.41987E-03   -0.12448E-02 73104   0.528E-01    0.206E-01
DAV:   3    -0.307354495265E+03    0.20807E-03   -0.94421E-03 66564   0.389E-01    0.198E-01
DAV:   4    -0.307354412632E+03    0.82633E-04   -0.57387E-03 58368   0.357E-01    0.196E-01
DAV:   5    -0.307354026441E+03    0.38619E-03   -0.27666E-03 61128   0.251E-01    0.710E-02
DAV:   6    -0.307353975720E+03    0.50722E-04   -0.69921E-04 47208   0.115E-01
  49 F= -.30735398E+03 E0= -.30735628E+03  d E =-.612585E-03
       N       E                     dE             d eps       ncg     rms          rms(c)
DAV:   1    -0.307354522952E+03   -0.49651E-03   -0.14136E-01 41304   0.152E+00    0.333E-01
DAV:   2    -0.307355702600E+03   -0.11796E-02   -0.22384E-02 70020   0.795E-01    0.356E-01
DAV:   3    -0.307355338803E+03    0.36380E-03   -0.18505E-02 68412   0.678E-01    0.317E-01
DAV:   4    -0.307354629798E+03    0.70901E-03   -0.92876E-03 61152   0.461E-01    0.189E-01
DAV:   5    -0.307354262748E+03    0.36705E-03   -0.46474E-03 61056   0.293E-01    0.131E-01
DAV:   6    -0.307354179929E+03    0.82819E-04   -0.20904E-03 57696   0.237E-01    0.104E-01
DAV:   7    -0.307354108421E+03    0.71508E-04   -0.96071E-04 53316   0.153E-01
  50 F= -.30735411E+03 E0= -.30735637E+03  d E =-.745286E-03
