<?xml version="1.0" encoding="ISO-8859-1"?>
<modeling>
 <generator>
  <i name="program" type="string">vasp </i>
  <i name="version" type="string">5.4.4.18Apr17-6-g9f103f2a35  </i>
  <i name="subversion" type="string">(build Aug 09 2018 16:20:53) complex            parallel </i>
  <i name="platform" type="string">LinuxIFC </i>
  <i name="date" type="string">2020 04 30 </i>
  <i name="time" type="string">16:08:17 </i>
 </generator>
 <incar>
  <i type="string" name="SYSTEM"> Nb - Mo - Ta - Ti - V SQS</i>
  <i type="string" name="PREC">normal</i>
  <i type="int" name="ICHARG">     0</i>
  <i type="int" name="IBRION">     2</i>
  <i type="int" name="NSW">    50</i>
  <i type="int" name="ISIF">     3</i>
  <i name="ENCUT">    600.00000000</i>
  <i type="string" name="LREAL"> Auto</i>
  <i type="int" name="ISMEAR">     1</i>
  <i name="SIGMA">      0.20000000</i>
  <v type="int" name="KPOINT_BSE">    -1     0     0     0</v>
  <i type="string" name="GGA"> PS</i>
 </incar>
 <structure name="primitive_cell" >
  <crystal>
   <varray name="basis" >
    <v>      -3.16000000      -3.16000000      -3.16000000 </v>
    <v>       1.58000000       1.58000000      -7.90000000 </v>
    <v>       7.90000000      -7.90000000      -1.58000000 </v>
   </varray>
   <i name="volume">    473.31744000 </i>
   <varray name="rec_basis" >
    <v>      -0.13713080      -0.12658228      -0.05274262 </v>
    <v>       0.04219409       0.06329114      -0.10548523 </v>
    <v>       0.06329114      -0.06329114       0.00000000 </v>
   </varray>
  </crystal>
  <varray name="positions" >
   <v>      -0.03333333      -0.06666667       0.40000000 </v>
   <v>       0.30000000      -0.40000000       0.40000000 </v>
   <v>      -0.10000000      -0.20000000       0.20000000 </v>
   <v>       0.06666667       0.13333333       0.20000000 </v>
   <v>       0.46666667      -0.06666667       0.40000000 </v>
   <v>      -0.13333333      -0.26666667      -0.40000000 </v>
   <v>       0.03333333       0.06666667      -0.40000000 </v>
   <v>      -0.36666667       0.26666667       0.40000000 </v>
   <v>       0.40000000      -0.20000000       0.20000000 </v>
   <v>      -0.20000000      -0.40000000       0.40000000 </v>
   <v>      -0.43333333       0.13333333       0.20000000 </v>
   <v>       0.36666667      -0.26666667      -0.40000000 </v>
   <v>       0.13333333       0.26666667       0.40000000 </v>
   <v>      -0.46666667       0.06666667      -0.40000000 </v>
   <v>       0.23333333       0.46666667       0.20000000 </v>
   <v>       0.20000000       0.40000000      -0.40000000 </v>
   <v>       0.00000000       0.00000000       0.00000000 </v>
   <v>      -0.06666667      -0.13333333      -0.20000000 </v>
   <v>      -0.26666667       0.46666667       0.20000000 </v>
   <v>       0.33333333      -0.33333333       0.00000000 </v>
   <v>       0.43333333      -0.13333333      -0.20000000 </v>
   <v>      -0.50000000       0.00000000       0.00000000 </v>
   <v>       0.26666667      -0.46666667      -0.20000000 </v>
   <v>      -0.33333333       0.33333333       0.00000000 </v>
   <v>      -0.40000000       0.20000000      -0.20000000 </v>
   <v>      -0.16666667      -0.33333333       0.00000000 </v>
   <v>      -0.23333333      -0.46666667      -0.20000000 </v>
   <v>       0.16666667       0.33333333       0.00000000 </v>
   <v>       0.10000000       0.20000000      -0.20000000 </v>
  </varray>
 </structure>
 <varray name="primitive_index" >
  <v type="int" >        1 </v>
  <v type="int" >       18 </v>
  <v type="int" >        7 </v>
  <v type="int" >       24 </v>
  <v type="int" >       20 </v>
  <v type="int" >       19 </v>
  <v type="int" >        6 </v>
  <v type="int" >        2 </v>
  <v type="int" >       16 </v>
  <v type="int" >        8 </v>
  <v type="int" >       15 </v>
  <v type="int" >       11 </v>
  <v type="int" >       12 </v>
  <v type="int" >       27 </v>
  <v type="int" >       29 </v>
  <v type="int" >       23 </v>
  <v type="int" >        4 </v>
  <v type="int" >       14 </v>
  <v type="int" >        9 </v>
  <v type="int" >       28 </v>
  <v type="int" >       17 </v>
  <v type="int" >        3 </v>
  <v type="int" >       22 </v>
  <v type="int" >       10 </v>
  <v type="int" >       26 </v>
  <v type="int" >       13 </v>
  <v type="int" >       25 </v>
  <v type="int" >       21 </v>
  <v type="int" >        5 </v>
 </varray>
 <kpoints>
  <generation param="Gamma">
   <v type="int" name="divisions">       7        7        7 </v>
   <v name="usershift">      0.00000000       0.00000000       0.00000000 </v>
   <v name="genvec1">      0.14285714       0.00000000       0.00000000 </v>
   <v name="genvec2">     -0.00000000       0.14285714       0.00000000 </v>
   <v name="genvec3">      0.00000000       0.00000000       0.14285714 </v>
   <v name="shift">      0.00000000       0.00000000       0.00000000 </v>
  </generation>
  <varray name="kpointlist" >
   <v>       0.00000000       0.00000000       0.00000000 </v>
   <v>       0.14285714       0.00000000      -0.00000000 </v>
   <v>       0.28571429       0.00000000       0.00000000 </v>
   <v>       0.42857143       0.00000000      -0.00000000 </v>
   <v>      -0.00000000       0.14285714       0.00000000 </v>
   <v>       0.14285714       0.14285714      -0.00000000 </v>
   <v>       0.28571429       0.14285714       0.00000000 </v>
   <v>       0.42857143       0.14285714      -0.00000000 </v>
   <v>      -0.42857143       0.14285714       0.00000000 </v>
   <v>      -0.28571429       0.14285714       0.00000000 </v>
   <v>      -0.14285714       0.14285714       0.00000000 </v>
   <v>       0.00000000       0.28571429      -0.00000000 </v>
   <v>       0.14285714       0.28571429      -0.00000000 </v>
   <v>       0.28571429       0.28571429      -0.00000000 </v>
   <v>       0.42857143       0.28571429      -0.00000000 </v>
   <v>      -0.42857143       0.28571429      -0.00000000 </v>
   <v>      -0.28571429       0.28571429      -0.00000000 </v>
   <v>      -0.14285714       0.28571429      -0.00000000 </v>
   <v>      -0.00000000       0.42857143      -0.00000000 </v>
   <v>       0.14285714       0.42857143       0.00000000 </v>
   <v>       0.28571429       0.42857143       0.00000000 </v>
   <v>       0.42857143       0.42857143      -0.00000000 </v>
   <v>      -0.42857143       0.42857143       0.00000000 </v>
   <v>      -0.28571429       0.42857143      -0.00000000 </v>
   <v>      -0.14285714       0.42857143      -0.00000000 </v>
   <v>       0.00000000       0.00000000       0.14285714 </v>
   <v>       0.14285714       0.00000000       0.14285714 </v>
   <v>       0.28571429       0.00000000       0.14285714 </v>
   <v>       0.42857143       0.00000000       0.14285714 </v>
   <v>      -0.42857143       0.00000000       0.14285714 </v>
   <v>      -0.28571429       0.00000000       0.14285714 </v>
   <v>      -0.14285714      -0.00000000       0.14285714 </v>
   <v>      -0.00000000       0.14285714       0.14285714 </v>
   <v>       0.14285714       0.14285714       0.14285714 </v>
   <v>       0.28571429       0.14285714       0.14285714 </v>
   <v>       0.42857143       0.14285714       0.14285714 </v>
   <v>      -0.42857143       0.14285714       0.14285714 </v>
   <v>      -0.28571429       0.14285714       0.14285714 </v>
   <v>      -0.14285714       0.14285714       0.14285714 </v>
   <v>      -0.00000000       0.28571429       0.14285714 </v>
   <v>       0.14285714       0.28571429       0.14285714 </v>
   <v>       0.28571429       0.28571429       0.14285714 </v>
   <v>       0.42857143       0.28571429       0.14285714 </v>
   <v>      -0.42857143       0.28571429       0.14285714 </v>
   <v>      -0.28571429       0.28571429       0.14285714 </v>
   <v>      -0.14285714       0.28571429       0.14285714 </v>
   <v>       0.00000000       0.42857143       0.14285714 </v>
   <v>       0.14285714       0.42857143       0.14285714 </v>
   <v>       0.28571429       0.42857143       0.14285714 </v>
   <v>       0.42857143       0.42857143       0.14285714 </v>
   <v>      -0.42857143       0.42857143       0.14285714 </v>
   <v>      -0.28571429       0.42857143       0.14285714 </v>
   <v>      -0.14285714       0.42857143       0.14285714 </v>
   <v>       0.00000000      -0.42857143       0.14285714 </v>
   <v>       0.14285714      -0.42857143       0.14285714 </v>
   <v>       0.28571429      -0.42857143       0.14285714 </v>
   <v>       0.42857143      -0.42857143       0.14285714 </v>
   <v>      -0.42857143      -0.42857143       0.14285714 </v>
   <v>      -0.28571429      -0.42857143       0.14285714 </v>
   <v>      -0.14285714      -0.42857143       0.14285714 </v>
   <v>       0.00000000      -0.28571429       0.14285714 </v>
   <v>       0.14285714      -0.28571429       0.14285714 </v>
   <v>       0.28571429      -0.28571429       0.14285714 </v>
   <v>       0.42857143      -0.28571429       0.14285714 </v>
   <v>      -0.42857143      -0.28571429       0.14285714 </v>
   <v>      -0.28571429      -0.28571429       0.14285714 </v>
   <v>      -0.14285714      -0.28571429       0.14285714 </v>
   <v>       0.00000000      -0.14285714       0.14285714 </v>
   <v>       0.14285714      -0.14285714       0.14285714 </v>
   <v>       0.28571429      -0.14285714       0.14285714 </v>
   <v>       0.42857143      -0.14285714       0.14285714 </v>
   <v>      -0.42857143      -0.14285714       0.14285714 </v>
   <v>      -0.28571429      -0.14285714       0.14285714 </v>
   <v>      -0.14285714      -0.14285714       0.14285714 </v>
   <v>       0.00000000       0.00000000       0.28571429 </v>
   <v>       0.14285714       0.00000000       0.28571429 </v>
   <v>       0.28571429       0.00000000       0.28571429 </v>
   <v>       0.42857143       0.00000000       0.28571429 </v>
   <v>      -0.42857143      -0.00000000       0.28571429 </v>
   <v>      -0.28571429      -0.00000000       0.28571429 </v>
   <v>      -0.14285714      -0.00000000       0.28571429 </v>
   <v>      -0.00000000       0.14285714       0.28571429 </v>
   <v>       0.14285714       0.14285714       0.28571429 </v>
   <v>       0.28571429       0.14285714       0.28571429 </v>
   <v>       0.42857143       0.14285714       0.28571429 </v>
   <v>      -0.42857143       0.14285714       0.28571429 </v>
   <v>      -0.28571429       0.14285714       0.28571429 </v>
   <v>      -0.14285714       0.14285714       0.28571429 </v>
   <v>      -0.00000000       0.28571429       0.28571429 </v>
   <v>       0.14285714       0.28571429       0.28571429 </v>
   <v>       0.28571429       0.28571429       0.28571429 </v>
   <v>       0.42857143       0.28571429       0.28571429 </v>
   <v>      -0.42857143       0.28571429       0.28571429 </v>
   <v>      -0.28571429       0.28571429       0.28571429 </v>
   <v>      -0.14285714       0.28571429       0.28571429 </v>
   <v>       0.00000000       0.42857143       0.28571429 </v>
   <v>       0.14285714       0.42857143       0.28571429 </v>
   <v>       0.28571429       0.42857143       0.28571429 </v>
   <v>       0.42857143       0.42857143       0.28571429 </v>
   <v>      -0.42857143       0.42857143       0.28571429 </v>
   <v>      -0.28571429       0.42857143       0.28571429 </v>
   <v>      -0.14285714       0.42857143       0.28571429 </v>
   <v>      -0.00000000      -0.42857143       0.28571429 </v>
   <v>       0.14285714      -0.42857143       0.28571429 </v>
   <v>       0.28571429      -0.42857143       0.28571429 </v>
   <v>       0.42857143      -0.42857143       0.28571429 </v>
   <v>      -0.42857143      -0.42857143       0.28571429 </v>
   <v>      -0.28571429      -0.42857143       0.28571429 </v>
   <v>      -0.14285714      -0.42857143       0.28571429 </v>
   <v>       0.00000000      -0.28571429       0.28571429 </v>
   <v>       0.14285714      -0.28571429       0.28571429 </v>
   <v>       0.28571429      -0.28571429       0.28571429 </v>
   <v>       0.42857143      -0.28571429       0.28571429 </v>
   <v>      -0.42857143      -0.28571429       0.28571429 </v>
   <v>      -0.28571429      -0.28571429       0.28571429 </v>
   <v>      -0.14285714      -0.28571429       0.28571429 </v>
   <v>       0.00000000      -0.14285714       0.28571429 </v>
   <v>       0.14285714      -0.14285714       0.28571429 </v>
   <v>       0.28571429      -0.14285714       0.28571429 </v>
   <v>       0.42857143      -0.14285714       0.28571429 </v>
   <v>      -0.42857143      -0.14285714       0.28571429 </v>
   <v>      -0.28571429      -0.14285714       0.28571429 </v>
   <v>      -0.14285714      -0.14285714       0.28571429 </v>
   <v>       0.00000000       0.00000000       0.42857143 </v>
   <v>       0.14285714       0.00000000       0.42857143 </v>
   <v>       0.28571429       0.00000000       0.42857143 </v>
   <v>       0.42857143      -0.00000000       0.42857143 </v>
   <v>      -0.42857143      -0.00000000       0.42857143 </v>
   <v>      -0.28571429       0.00000000       0.42857143 </v>
   <v>      -0.14285714      -0.00000000       0.42857143 </v>
   <v>      -0.00000000       0.14285714       0.42857143 </v>
   <v>       0.14285714       0.14285714       0.42857143 </v>
   <v>       0.28571429       0.14285714       0.42857143 </v>
   <v>       0.42857143       0.14285714       0.42857143 </v>
   <v>      -0.42857143       0.14285714       0.42857143 </v>
   <v>      -0.28571429       0.14285714       0.42857143 </v>
   <v>      -0.14285714       0.14285714       0.42857143 </v>
   <v>       0.00000000       0.28571429       0.42857143 </v>
   <v>       0.14285714       0.28571429       0.42857143 </v>
   <v>       0.28571429       0.28571429       0.42857143 </v>
   <v>       0.42857143       0.28571429       0.42857143 </v>
   <v>      -0.42857143       0.28571429       0.42857143 </v>
   <v>      -0.28571429       0.28571429       0.42857143 </v>
   <v>      -0.14285714       0.28571429       0.42857143 </v>
   <v>       0.00000000       0.42857143       0.42857143 </v>
   <v>       0.14285714       0.42857143       0.42857143 </v>
   <v>       0.28571429       0.42857143       0.42857143 </v>
   <v>       0.42857143       0.42857143       0.42857143 </v>
   <v>      -0.42857143       0.42857143       0.42857143 </v>
   <v>      -0.28571429       0.42857143       0.42857143 </v>
   <v>      -0.14285714       0.42857143       0.42857143 </v>
   <v>       0.00000000      -0.42857143       0.42857143 </v>
   <v>       0.14285714      -0.42857143       0.42857143 </v>
   <v>       0.28571429      -0.42857143       0.42857143 </v>
   <v>       0.42857143      -0.42857143       0.42857143 </v>
   <v>      -0.42857143      -0.42857143       0.42857143 </v>
   <v>      -0.28571429      -0.42857143       0.42857143 </v>
   <v>      -0.14285714      -0.42857143       0.42857143 </v>
   <v>      -0.00000000      -0.28571429       0.42857143 </v>
   <v>       0.14285714      -0.28571429       0.42857143 </v>
   <v>       0.28571429      -0.28571429       0.42857143 </v>
   <v>       0.42857143      -0.28571429       0.42857143 </v>
   <v>      -0.42857143      -0.28571429       0.42857143 </v>
   <v>      -0.28571429      -0.28571429       0.42857143 </v>
   <v>      -0.14285714      -0.28571429       0.42857143 </v>
   <v>       0.00000000      -0.14285714       0.42857143 </v>
   <v>       0.14285714      -0.14285714       0.42857143 </v>
   <v>       0.28571429      -0.14285714       0.42857143 </v>
   <v>       0.42857143      -0.14285714       0.42857143 </v>
   <v>      -0.42857143      -0.14285714       0.42857143 </v>
   <v>      -0.28571429      -0.14285714       0.42857143 </v>
   <v>      -0.14285714      -0.14285714       0.42857143 </v>
  </varray>
  <varray name="weights" >
   <v>       0.00291545 </v>
   <v>       0.00583090 </v>
   <v>       0.00583090 </v>
   <v>       0.00583090 </v>
   <v>       0.00583090 </v>
   <v>       0.00583090 </v>
   <v>       0.00583090 </v>
   <v>       0.00583090 </v>
   <v>       0.00583090 </v>
   <v>       0.00583090 </v>
   <v>       0.00583090 </v>
   <v>       0.00583090 </v>
   <v>       0.00583090 </v>
   <v>       0.00583090 </v>
   <v>       0.00583090 </v>
   <v>       0.00583090 </v>
   <v>       0.00583090 </v>
   <v>       0.00583090 </v>
   <v>       0.00583090 </v>
   <v>       0.00583090 </v>
   <v>       0.00583090 </v>
   <v>       0.00583090 </v>
   <v>       0.00583090 </v>
   <v>       0.00583090 </v>
   <v>       0.00583090 </v>
   <v>       0.00583090 </v>
   <v>       0.00583090 </v>
   <v>       0.00583090 </v>
   <v>       0.00583090 </v>
   <v>       0.00583090 </v>
   <v>       0.00583090 </v>
   <v>       0.00583090 </v>
   <v>       0.00583090 </v>
   <v>       0.00583090 </v>
   <v>       0.00583090 </v>
   <v>       0.00583090 </v>
   <v>       0.00583090 </v>
   <v>       0.00583090 </v>
   <v>       0.00583090 </v>
   <v>       0.00583090 </v>
   <v>       0.00583090 </v>
   <v>       0.00583090 </v>
   <v>       0.00583090 </v>
   <v>       0.00583090 </v>
   <v>       0.00583090 </v>
   <v>       0.00583090 </v>
   <v>       0.00583090 </v>
   <v>       0.00583090 </v>
   <v>       0.00583090 </v>
   <v>       0.00583090 </v>
   <v>       0.00583090 </v>
   <v>       0.00583090 </v>
   <v>       0.00583090 </v>
   <v>       0.00583090 </v>
   <v>       0.00583090 </v>
   <v>       0.00583090 </v>
   <v>       0.00583090 </v>
   <v>       0.00583090 </v>
   <v>       0.00583090 </v>
   <v>       0.00583090 </v>
   <v>       0.00583090 </v>
   <v>       0.00583090 </v>
   <v>       0.00583090 </v>
   <v>       0.00583090 </v>
   <v>       0.00583090 </v>
   <v>       0.00583090 </v>
   <v>       0.00583090 </v>
   <v>       0.00583090 </v>
   <v>       0.00583090 </v>
   <v>       0.00583090 </v>
   <v>       0.00583090 </v>
   <v>       0.00583090 </v>
   <v>       0.00583090 </v>
   <v>       0.00583090 </v>
   <v>       0.00583090 </v>
   <v>       0.00583090 </v>
   <v>       0.00583090 </v>
   <v>       0.00583090 </v>
   <v>       0.00583090 </v>
   <v>       0.00583090 </v>
   <v>       0.00583090 </v>
   <v>       0.00583090 </v>
   <v>       0.00583090 </v>
   <v>       0.00583090 </v>
   <v>       0.00583090 </v>
   <v>       0.00583090 </v>
   <v>       0.00583090 </v>
   <v>       0.00583090 </v>
   <v>       0.00583090 </v>
   <v>       0.00583090 </v>
   <v>       0.00583090 </v>
   <v>       0.00583090 </v>
   <v>       0.00583090 </v>
   <v>       0.00583090 </v>
   <v>       0.00583090 </v>
   <v>       0.00583090 </v>
   <v>       0.00583090 </v>
   <v>       0.00583090 </v>
   <v>       0.00583090 </v>
   <v>       0.00583090 </v>
   <v>       0.00583090 </v>
   <v>       0.00583090 </v>
   <v>       0.00583090 </v>
   <v>       0.00583090 </v>
   <v>       0.00583090 </v>
   <v>       0.00583090 </v>
   <v>       0.00583090 </v>
   <v>       0.00583090 </v>
   <v>       0.00583090 </v>
   <v>       0.00583090 </v>
   <v>       0.00583090 </v>
   <v>       0.00583090 </v>
   <v>       0.00583090 </v>
   <v>       0.00583090 </v>
   <v>       0.00583090 </v>
   <v>       0.00583090 </v>
   <v>       0.00583090 </v>
   <v>       0.00583090 </v>
   <v>       0.00583090 </v>
   <v>       0.00583090 </v>
   <v>       0.00583090 </v>
   <v>       0.00583090 </v>
   <v>       0.00583090 </v>
   <v>       0.00583090 </v>
   <v>       0.00583090 </v>
   <v>       0.00583090 </v>
   <v>       0.00583090 </v>
   <v>       0.00583090 </v>
   <v>       0.00583090 </v>
   <v>       0.00583090 </v>
   <v>       0.00583090 </v>
   <v>       0.00583090 </v>
   <v>       0.00583090 </v>
   <v>       0.00583090 </v>
   <v>       0.00583090 </v>
   <v>       0.00583090 </v>
   <v>       0.00583090 </v>
   <v>       0.00583090 </v>
   <v>       0.00583090 </v>
   <v>       0.00583090 </v>
   <v>       0.00583090 </v>
   <v>       0.00583090 </v>
   <v>       0.00583090 </v>
   <v>       0.00583090 </v>
   <v>       0.00583090 </v>
   <v>       0.00583090 </v>
   <v>       0.00583090 </v>
   <v>       0.00583090 </v>
   <v>       0.00583090 </v>
   <v>       0.00583090 </v>
   <v>       0.00583090 </v>
   <v>       0.00583090 </v>
   <v>       0.00583090 </v>
   <v>       0.00583090 </v>
   <v>       0.00583090 </v>
   <v>       0.00583090 </v>
   <v>       0.00583090 </v>
   <v>       0.00583090 </v>
   <v>       0.00583090 </v>
   <v>       0.00583090 </v>
   <v>       0.00583090 </v>
   <v>       0.00583090 </v>
   <v>       0.00583090 </v>
   <v>       0.00583090 </v>
   <v>       0.00583090 </v>
   <v>       0.00583090 </v>
   <v>       0.00583090 </v>
   <v>       0.00583090 </v>
   <v>       0.00583090 </v>
   <v>       0.00583090 </v>
   <v>       0.00583090 </v>
   <v>       0.00583090 </v>
  </varray>
 </kpoints>
 <parameters>
  <separator name="general" >
   <i type="string" name="SYSTEM">Nb - Mo - Ta - Ti - V SQS</i>
   <i type="logical" name="LCOMPAT"> F  </i>
  </separator>
  <separator name="electronic" >
   <i type="string" name="PREC">normal</i>
   <i name="ENMAX">    600.00000000</i>
   <i name="ENAUG">    455.65900000</i>
   <i name="EDIFF">      0.00010000</i>
   <i type="int" name="IALGO">    38</i>
   <i type="int" name="IWAVPR">    11</i>
   <i type="int" name="NBANDS">   120</i>
   <i name="NELECT">    193.00000000</i>
   <i type="int" name="TURBO">     0</i>
   <i type="int" name="IRESTART">     0</i>
   <i type="int" name="NREBOOT">     0</i>
   <i type="int" name="NMIN">     0</i>
   <i name="EREF">      0.00000000</i>
   <separator name="electronic smearing" >
    <i type="int" name="ISMEAR">     1</i>
    <i name="SIGMA">      0.20000000</i>
    <i name="KSPACING">      0.50000000</i>
    <i type="logical" name="KGAMMA"> T  </i>
   </separator>
   <separator name="electronic projectors" >
    <i type="logical" name="LREAL"> T  </i>
    <v name="ROPT">     -0.00050000     -0.00050000     -0.00050000     -0.00050000     -0.00050000</v>
    <i type="int" name="LMAXPAW">  -100</i>
    <i type="int" name="LMAXMIX">     2</i>
    <i type="logical" name="NLSPLINE"> F  </i>
   </separator>
   <separator name="electronic startup" >
    <i type="int" name="ISTART">     0</i>
    <i type="int" name="ICHARG">     0</i>
    <i type="int" name="INIWAV">     1</i>
   </separator>
   <separator name="electronic spin" >
    <i type="int" name="ISPIN">     1</i>
    <i type="logical" name="LNONCOLLINEAR"> F  </i>
    <v name="MAGMOM">      1.00000000      1.00000000      1.00000000      1.00000000      1.00000000      1.00000000      1.00000000      1.00000000      1.00000000      1.00000000      1.00000000      1.00000000      1.00000000      1.00000000      1.00000000      1.00000000      1.00000000      1.00000000      1.00000000      1.00000000
      1.00000000      1.00000000      1.00000000      1.00000000      1.00000000      1.00000000      1.00000000      1.00000000      1.00000000</v>
    <i name="NUPDOWN">     -1.00000000</i>
    <i type="logical" name="LSORBIT"> F  </i>
    <v name="SAXIS">      0.00000000      0.00000000      1.00000000</v>
    <i type="logical" name="LSPIRAL"> F  </i>
    <v name="QSPIRAL">      0.00000000      0.00000000      0.00000000</v>
    <i type="logical" name="LZEROZ"> F  </i>
   </separator>
   <separator name="electronic exchange-correlation" >
    <i type="logical" name="LASPH"> F  </i>
    <i type="logical" name="LMETAGGA"> F  </i>
   </separator>
   <separator name="electronic convergence" >
    <i type="int" name="NELM">    60</i>
    <i type="int" name="NELMDL">    -5</i>
    <i type="int" name="NELMIN">     2</i>
    <i name="ENINI">    600.00000000</i>
    <separator name="electronic convergence detail" >
     <i type="logical" name="LDIAG"> T  </i>
     <i type="logical" name="LSUBROT"> F  </i>
     <i name="WEIMIN">      0.00100000</i>
     <i name="EBREAK">      0.00000021</i>
     <i name="DEPER">      0.30000000</i>
     <i type="int" name="NRMM">     4</i>
     <i name="TIME">      0.40000000</i>
    </separator>
   </separator>
   <separator name="electronic mixer" >
    <i name="AMIX">      0.40000000</i>
    <i name="BMIX">      1.00000000</i>
    <i name="AMIN">      0.10000000</i>
    <i name="AMIX_MAG">      1.60000000</i>
    <i name="BMIX_MAG">      1.00000000</i>
    <separator name="electronic mixer details" >
     <i type="int" name="IMIX">     4</i>
     <i type="logical" name="MIXFIRST"> F  </i>
     <i type="int" name="MAXMIX">   -45</i>
     <i name="WC">    100.00000000</i>
     <i type="int" name="INIMIX">     1</i>
     <i type="int" name="MIXPRE">     1</i>
     <i type="int" name="MREMOVE">     5</i>
    </separator>
   </separator>
   <separator name="electronic dipolcorrection" >
    <i type="logical" name="LDIPOL"> F  </i>
    <i type="logical" name="LMONO"> F  </i>
    <i type="int" name="IDIPOL">     0</i>
    <i name="EPSILON">      1.00000000</i>
    <v name="DIPOL">   -100.00000000   -100.00000000   -100.00000000</v>
    <i name="EFIELD">      0.00000000</i>
   </separator>
  </separator>
  <separator name="grids" >
   <i type="int" name="NGX">    36</i>
   <i type="int" name="NGY">    50</i>
   <i type="int" name="NGZ">    70</i>
   <i type="int" name="NGXF">    72</i>
   <i type="int" name="NGYF">   100</i>
   <i type="int" name="NGZF">   140</i>
   <i type="logical" name="ADDGRID"> F  </i>
  </separator>
  <separator name="ionic" >
   <i type="int" name="NSW">    50</i>
   <i type="int" name="IBRION">     2</i>
   <i type="int" name="MDALGO">     0</i>
   <i type="int" name="ISIF">     3</i>
   <i name="PSTRESS">      0.00000000</i>
   <i name="EDIFFG">      0.00100000</i>
   <i type="int" name="NFREE">     1</i>
   <i name="POTIM">      0.50000000</i>
   <i name="SMASS">     -3.00000000</i>
   <i name="SCALEE">      1.00000000</i>
  </separator>
  <separator name="ionic md" >
   <i name="TEBEG">      0.00010000</i>
   <i name="TEEND">      0.00010000</i>
   <i type="int" name="NBLOCK">     1</i>
   <i type="int" name="KBLOCK">    50</i>
   <i type="int" name="NPACO">   256</i>
   <i name="APACO">     16.00000000</i>
  </separator>
  <separator name="symmetry" >
   <i type="int" name="ISYM">     2</i>
   <i name="SYMPREC">      0.00001000</i>
  </separator>
  <separator name="dos" >
   <i type="int" name="LORBIT">     0</i>
   <v name="RWIGS">     -1.00000000     -1.00000000     -1.00000000     -1.00000000     -1.00000000</v>
   <i type="int" name="NEDOS">   301</i>
   <i name="EMIN">     10.00000000</i>
   <i name="EMAX">    -10.00000000</i>
   <i name="EFERMI">      0.00000000</i>
  </separator>
  <separator name="writing" >
   <i type="int" name="NWRITE">     2</i>
   <i type="logical" name="LWAVE"> T  </i>
   <i type="logical" name="LDOWNSAMPLE"> F  </i>
   <i type="logical" name="LCHARG"> T  </i>
   <i type="logical" name="LPARD"> F  </i>
   <i type="logical" name="LVTOT"> F  </i>
   <i type="logical" name="LVHAR"> F  </i>
   <i type="logical" name="LELF"> F  </i>
   <i type="logical" name="LOPTICS"> F  </i>
   <v name="STM">      0.00000000      0.00000000      0.00000000      0.00000000      0.00000000      0.00000000      0.00000000</v>
  </separator>
  <separator name="performance" >
   <i type="int" name="NPAR">    12</i>
   <i type="int" name="NSIM">     4</i>
   <i type="int" name="NBLK">    -1</i>
   <i type="logical" name="LPLANE"> T  </i>
   <i type="logical" name="LSCALAPACK"> T  </i>
   <i type="logical" name="LSCAAWARE"> F  </i>
   <i type="logical" name="LSCALU"> F  </i>
   <i type="logical" name="LASYNC"> F  </i>
   <i type="logical" name="LORBITALREAL"> F  </i>
  </separator>
  <separator name="miscellaneous" >
   <i type="int" name="IDIOT">     3</i>
   <i type="int" name="ISPECIAL">     0</i>
   <i type="logical" name="LMUSIC"> F  </i>
   <v name="POMASS">     92.91000000     95.94000000    180.94800000     47.88000000     50.94100000</v>
   <v name="DARWINR">      0.00000000      0.00000000      0.00000000      0.00000000      0.00000000</v>
   <v name="DARWINV">      1.00000000      1.00000000      1.00000000      1.00000000      1.00000000</v>
   <i type="logical" name="LCORR"> T  </i>
  </separator>
  <i type="logical" name="GGA_COMPAT"> T  </i>
  <i type="logical" name="LBERRY"> F  </i>
  <i type="int" name="ICORELEVEL">     0</i>
  <i type="logical" name="LDAU"> F  </i>
  <i type="int" name="I_CONSTRAINED_M">     0</i>
  <separator name="electronic exchange-correlation" >
   <i type="string" name="GGA">PS</i>
   <i type="int" name="VOSKOWN">     0</i>
   <i type="logical" name="LHFCALC"> F  </i>
   <i type="string" name="PRECFOCK"></i>
   <i type="logical" name="LSYMGRAD"> F  </i>
   <i type="logical" name="LHFONE"> F  </i>
   <i type="logical" name="LRHFCALC"> F  </i>
   <i type="logical" name="LTHOMAS"> F  </i>
   <i type="logical" name="LMODELHF"> F  </i>
   <i name="ENCUT4O">     -1.00000000</i>
   <i type="int" name="EXXOEP">     0</i>
   <i type="int" name="FOURORBIT">     0</i>
   <i name="AEXX">      0.00000000</i>
   <i name="HFALPHA">      0.00000000</i>
   <i name="MCALPHA">      0.00000000</i>
   <i name="ALDAX">      1.00000000</i>
   <i name="AGGAX">      1.00000000</i>
   <i name="ALDAC">      1.00000000</i>
   <i name="AGGAC">      1.00000000</i>
   <i type="int" name="NKREDX">     1</i>
   <i type="int" name="NKREDY">     1</i>
   <i type="int" name="NKREDZ">     1</i>
   <i type="logical" name="SHIFTRED"> F  </i>
   <i type="logical" name="ODDONLY"> F  </i>
   <i type="logical" name="EVENONLY"> F  </i>
   <i type="int" name="LMAXFOCK">     0</i>
   <i type="int" name="NMAXFOCKAE">     0</i>
   <i type="logical" name="LFOCKAEDFT"> F  </i>
   <i name="HFSCREEN">      0.00000000</i>
   <i name="HFSCREENC">      0.00000000</i>
   <i type="int" name="NBANDSGWLOW">     0</i>
  </separator>
  <separator name="vdW DFT" >
   <i type="logical" name="LUSE_VDW"> F  </i>
   <i name="Zab_VDW">     -0.84910000</i>
   <i name="PARAM1">      0.12340000</i>
   <i name="PARAM2">      1.00000000</i>
   <i name="PARAM3">      0.00000000</i>
  </separator>
  <separator name="model GW" >
   <i type="int" name="MODEL_GW">     0</i>
   <i name="MODEL_EPS0">      9.79277462</i>
   <i name="MODEL_ALPHA">      1.00000000</i>
  </separator>
  <separator name="linear response parameters" >
   <i type="logical" name="LEPSILON"> F  </i>
   <i type="logical" name="LRPA"> F  </i>
   <i type="logical" name="LNABLA"> F  </i>
   <i type="logical" name="LVEL"> F  </i>
   <i type="int" name="KINTER">     0</i>
   <i name="CSHIFT">      0.10000000</i>
   <i name="OMEGAMAX">     -1.00000000</i>
   <i name="DEG_THRESHOLD">      0.00200000</i>
   <i name="RTIME">     -0.10000000</i>
   <i name="WPLASMAI">      0.00000000</i>
   <v name="DFIELD">      0.00000000      0.00000000      0.00000000</v>
   <v name="WPLASMA">      0.00000000      0.00000000      0.00000000      0.00000000      0.00000000      0.00000000      0.00000000      0.00000000      0.00000000</v>
  </separator>
  <separator name="orbital magnetization" >
   <i type="logical" name="NUCIND"> F  </i>
   <v name="MAGPOS">      0.00000000      0.00000000      0.00000000</v>
   <i type="logical" name="LNICSALL"> T  </i>
   <i type="logical" name="ORBITALMAG"> F  </i>
   <i type="logical" name="LMAGBLOCH"> F  </i>
   <i type="logical" name="LCHIMAG"> F  </i>
   <i type="logical" name="LGAUGE"> T  </i>
   <i type="int" name="MAGATOM">     0</i>
   <v name="MAGDIPOL">      0.00000000      0.00000000      0.00000000</v>
   <v name="AVECCONST">      0.00000000      0.00000000      0.00000000</v>
  </separator>
  <separator name="response functions" >
   <i type="logical" name="LADDER"> F  </i>
   <i type="logical" name="LRPAFORCE"> F  </i>
   <i type="logical" name="LFXC"> F  </i>
   <i type="logical" name="LHARTREE"> T  </i>
   <i type="int" name="IBSE">     0</i>
   <v type="int" name="KPOINT">    -1     0     0     0</v>
   <i type="logical" name="LTCTE"> F  </i>
   <i type="logical" name="LTETE"> F  </i>
   <i type="logical" name="LTRIPLET"> F  </i>
   <i type="logical" name="LFXCEPS"> F  </i>
   <i type="logical" name="LFXHEG"> F  </i>
   <i type="int" name="NATURALO">     2</i>
   <i type="logical" name="L2ORDER"> F  </i>
   <i type="logical" name="LMP2LT"> F  </i>
   <i type="logical" name="LUSEW"> F  </i>
   <i name="ENCUTGW">     -2.00000000</i>
   <i name="ENCUTGWSOFT">     -2.00000000</i>
   <i name="ENCUTLF">     -1.00000000</i>
   <i type="int" name="LMAXMP2">    -1</i>
   <i name="SCISSOR">      0.00000000</i>
   <i type="int" name="NOMEGA">     0</i>
   <i type="int" name="NOMEGAR">     0</i>
   <i type="int" name="NBANDSGW">    -1</i>
   <i type="int" name="NBANDSO">    -1</i>
   <i type="int" name="NBANDSV">    -1</i>
   <i type="int" name="NELM">     1</i>
   <i type="int" name="NELMHF">     1</i>
   <i type="int" name="DIM">     3</i>
   <i type="int" name="ANTIRES">     0</i>
   <i name="OMEGAMAX">    -30.00000000</i>
   <i name="OMEGAMIN">    -30.00000000</i>
   <i name="OMEGATL">   -200.00000000</i>
   <i type="int" name="OMEGAGRID">   140</i>
   <i name="CSHIFT">     -0.10000000</i>
   <i type="logical" name="SELFENERGY"> F  </i>
   <i type="logical" name="LSPECTRAL"> F  </i>
   <i type="logical" name="LSPECTRALGW"> F  </i>
   <i type="logical" name="LSINGLES"> F  </i>
   <i type="logical" name="LFERMIGW"> F  </i>
   <i type="logical" name="ODDONLYGW"> F  </i>
   <i type="logical" name="EVENONLYGW"> F  </i>
   <i type="int" name="NKREDLFX">     1</i>
   <i type="int" name="NKREDLFY">     1</i>
   <i type="int" name="NKREDLFZ">     1</i>
   <i type="int" name="MAXMEM">  2800</i>
   <i type="int" name="TELESCOPE">     0</i>
   <i type="int" name="TAUPAR">     1</i>
   <i type="int" name="OMEGAPAR">    -1</i>
   <i name="LAMBDA">      1.00000000</i>
  </separator>
  <separator name="External order field" >
   <i name="OFIELD_KAPPA">      0.00000000</i>
   <v name="OFIELD_K">      0.00000000      0.00000000      0.00000000</v>
   <i name="OFIELD_Q6_NEAR">      0.00000000</i>
   <i name="OFIELD_Q6_FAR">      0.00000000</i>
   <i name="OFIELD_A">      0.00000000</i>
  </separator>
  <separator name="solvation model" >
   <i type="logical" name="LSOL"> F  </i>
  </separator>
 </parameters>
 <atominfo>
  <atoms>      29 </atoms>
  <types>       5 </types>
  <array name="atoms" >
   <dimension dim="1">ion</dimension>
   <field type="string">element</field>
   <field type="int">atomtype</field>
   <set>
    <rc><c>Nb</c><c>   1</c></rc>
    <rc><c>Nb</c><c>   1</c></rc>
    <rc><c>Nb</c><c>   1</c></rc>
    <rc><c>Nb</c><c>   1</c></rc>
    <rc><c>Nb</c><c>   1</c></rc>
    <rc><c>Nb</c><c>   1</c></rc>
    <rc><c>Mo</c><c>   2</c></rc>
    <rc><c>Mo</c><c>   2</c></rc>
    <rc><c>Mo</c><c>   2</c></rc>
    <rc><c>Mo</c><c>   2</c></rc>
    <rc><c>Mo</c><c>   2</c></rc>
    <rc><c>Mo</c><c>   2</c></rc>
    <rc><c>Ta</c><c>   3</c></rc>
    <rc><c>Ta</c><c>   3</c></rc>
    <rc><c>Ta</c><c>   3</c></rc>
    <rc><c>Ta</c><c>   3</c></rc>
    <rc><c>Ta</c><c>   3</c></rc>
    <rc><c>Ta</c><c>   3</c></rc>
    <rc><c>Ti</c><c>   4</c></rc>
    <rc><c>Ti</c><c>   4</c></rc>
    <rc><c>Ti</c><c>   4</c></rc>
    <rc><c>Ti</c><c>   4</c></rc>
    <rc><c>Ti</c><c>   4</c></rc>
    <rc><c>Ti</c><c>   4</c></rc>
    <rc><c>V </c><c>   5</c></rc>
    <rc><c>V </c><c>   5</c></rc>
    <rc><c>V </c><c>   5</c></rc>
    <rc><c>V </c><c>   5</c></rc>
    <rc><c>V </c><c>   5</c></rc>
   </set>
  </array>
  <array name="atomtypes" >
   <dimension dim="1">type</dimension>
   <field type="int">atomspertype</field>
   <field type="string">element</field>
   <field>mass</field>
   <field>valence</field>
   <field type="string">pseudopotential</field>
   <set>
    <rc><c>   6</c><c>Nb</c><c>     92.91000000</c><c>     13.00000000</c><c>  PAW_PBE Nb_sv 25May2007               </c></rc>
    <rc><c>   6</c><c>Mo</c><c>     95.94000000</c><c>      6.00000000</c><c>  PAW_PBE Mo 08Apr2002                  </c></rc>
    <rc><c>   6</c><c>Ta</c><c>    180.94800000</c><c>      5.00000000</c><c>  PAW_PBE Ta 17Jan2003                  </c></rc>
    <rc><c>   6</c><c>Ti</c><c>     47.88000000</c><c>      4.00000000</c><c>  PAW_PBE Ti 08Apr2002                  </c></rc>
    <rc><c>   5</c><c>V </c><c>     50.94100000</c><c>      5.00000000</c><c>  PAW_PBE V 08Apr2002                   </c></rc>
   </set>
  </array>
 </atominfo>
 <structure name="initialpos" >
  <crystal>
   <varray name="basis" >
    <v>      -3.16000000      -3.16000000      -3.16000000 </v>
    <v>       1.58000000       1.58000000      -7.90000000 </v>
    <v>       7.90000000      -7.90000000      -1.58000000 </v>
   </varray>
   <i name="volume">    473.31744000 </i>
   <varray name="rec_basis" >
    <v>      -0.13713080      -0.12658228      -0.05274262 </v>
    <v>       0.04219409       0.06329114      -0.10548523 </v>
    <v>       0.06329114      -0.06329114       0.00000000 </v>
   </varray>
  </crystal>
  <varray name="positions" >
   <v>       0.96666667       0.93333333       0.40000000 </v>
   <v>       0.63333333       0.26666667       0.40000000 </v>
   <v>       0.50000000       0.00000000       0.00000000 </v>
   <v>       0.00000000       0.00000000       0.00000000 </v>
   <v>       0.10000000       0.20000000       0.80000000 </v>
   <v>       0.03333333       0.06666667       0.60000000 </v>
   <v>       0.90000000       0.80000000       0.20000000 </v>
   <v>       0.80000000       0.60000000       0.40000000 </v>
   <v>       0.73333333       0.46666667       0.20000000 </v>
   <v>       0.66666667       0.33333333       0.00000000 </v>
   <v>       0.36666667       0.73333333       0.60000000 </v>
   <v>       0.13333333       0.26666667       0.40000000 </v>
   <v>       0.83333333       0.66666667       0.00000000 </v>
   <v>       0.93333333       0.86666667       0.80000000 </v>
   <v>       0.56666667       0.13333333       0.20000000 </v>
   <v>       0.40000000       0.80000000       0.20000000 </v>
   <v>       0.43333333       0.86666667       0.80000000 </v>
   <v>       0.30000000       0.60000000       0.40000000 </v>
   <v>       0.86666667       0.73333333       0.60000000 </v>
   <v>       0.46666667       0.93333333       0.40000000 </v>
   <v>       0.16666667       0.33333333       0.00000000 </v>
   <v>       0.26666667       0.53333333       0.80000000 </v>
   <v>       0.20000000       0.40000000       0.60000000 </v>
   <v>       0.06666667       0.13333333       0.20000000 </v>
   <v>       0.76666667       0.53333333       0.80000000 </v>
   <v>       0.60000000       0.20000000       0.80000000 </v>
   <v>       0.53333333       0.06666667       0.60000000 </v>
   <v>       0.33333333       0.66666667       0.00000000 </v>
   <v>       0.23333333       0.46666667       0.20000000 </v>
  </varray>
 </structure>
 <calculation>
  <scstep>
   <time name="dav">   45.63   45.73</time>
   <time name="total">   45.76   45.87</time>
   <energy>
    <i name="alphaZ">   1173.71499705 </i>
    <i name="ewald"> -11083.39589163 </i>
    <i name="hartreedc">   -107.20018428 </i>
    <i name="XCdc">   -935.89062385 </i>
    <i name="pawpsdc"> 577195.11961061 </i>
    <i name="pawaedc">-575934.21576662 </i>
    <i name="eentropy">      0.00418024 </i>
    <i name="bandstr">  -7611.21971317 </i>
    <i name="atom">  12835.31476492 </i>
    <i name="e_fr_energy">  -4467.76862674 </i>
    <i name="e_wo_entrp">  -4467.77280698 </i>
    <i name="e_0_energy">  -4467.77002015 </i>
   </energy>
  </scstep>
  <scstep>
   <time name="dav">   52.64   52.77</time>
   <time name="total">   52.65   52.78</time>
   <energy>
    <i name="e_fr_energy">  -9667.22562799 </i>
    <i name="e_wo_entrp">  -9667.22360986 </i>
    <i name="e_0_energy">  -9667.22495528 </i>
   </energy>
  </scstep>
  <scstep>
   <time name="dav">   56.78   56.85</time>
   <time name="total">   56.79   56.86</time>
   <energy>
    <i name="e_fr_energy"> -10472.94785816 </i>
    <i name="e_wo_entrp"> -10472.94808229 </i>
    <i name="e_0_energy"> -10472.94793287 </i>
   </energy>
  </scstep>
  <scstep>
   <time name="dav">   57.11   57.19</time>
   <time name="total">   57.12   57.19</time>
   <energy>
    <i name="e_fr_energy"> -10706.67765113 </i>
    <i name="e_wo_entrp"> -10706.67641280 </i>
    <i name="e_0_energy"> -10706.67723835 </i>
   </energy>
  </scstep>
  <scstep>
   <time name="dav">   56.85   56.93</time>
   <time name="total">   57.50   57.58</time>
   <energy>
    <i name="e_fr_energy"> -10866.42770484 </i>
    <i name="e_wo_entrp"> -10866.42794730 </i>
    <i name="e_0_energy"> -10866.42778566 </i>
   </energy>
  </scstep>
  <scstep>
   <time name="dav">   46.85   46.92</time>
   <time name="total">   47.64   47.71</time>
   <energy>
    <i name="e_fr_energy">  -1088.00685085 </i>
    <i name="e_wo_entrp">  -1088.00503811 </i>
    <i name="e_0_energy">  -1088.00624660 </i>
   </energy>
  </scstep>
  <scstep>
   <time name="dav">   50.10   50.16</time>
   <time name="total">   50.80   50.86</time>
   <energy>
    <i name="e_fr_energy">   -931.73794421 </i>
    <i name="e_wo_entrp">   -931.73703270 </i>
    <i name="e_0_energy">   -931.73764038 </i>
   </energy>
  </scstep>
  <scstep>
   <time name="dav">   49.22   49.28</time>
   <time name="total">   49.90   49.97</time>
   <energy>
    <i name="e_fr_energy">   -624.86020258 </i>
    <i name="e_wo_entrp">   -624.86204789 </i>
    <i name="e_0_energy">   -624.86081769 </i>
   </energy>
  </scstep>
  <scstep>
   <time name="dav">   52.24   52.30</time>
   <time name="total">   52.90   52.96</time>
   <energy>
    <i name="e_fr_energy">   -556.38965785 </i>
    <i name="e_wo_entrp">   -556.39128024 </i>
    <i name="e_0_energy">   -556.39019865 </i>
   </energy>
  </scstep>
  <scstep>
   <time name="dav">   51.60   51.66</time>
   <time name="total">   52.27   52.34</time>
   <energy>
    <i name="e_fr_energy">   -561.73096003 </i>
    <i name="e_wo_entrp">   -561.71921932 </i>
    <i name="e_0_energy">   -561.72704646 </i>
   </energy>
  </scstep>
  <scstep>
   <time name="dav">   48.62   48.76</time>
   <time name="total">   49.24   49.43</time>
   <energy>
    <i name="e_fr_energy">   -465.53640421 </i>
    <i name="e_wo_entrp">   -465.52444086 </i>
    <i name="e_0_energy">   -465.53241643 </i>
   </energy>
  </scstep>
  <scstep>
   <time name="dav">   49.37   49.44</time>
   <time name="total">   50.03   50.11</time>
   <energy>
    <i name="e_fr_energy">   -586.08104961 </i>
    <i name="e_wo_entrp">   -586.07938780 </i>
    <i name="e_0_energy">   -586.08049567 </i>
   </energy>
  </scstep>
  <scstep>
   <time name="dav">   42.47   42.54</time>
   <time name="total">   43.16   43.24</time>
   <energy>
    <i name="e_fr_energy">   -476.11005551 </i>
    <i name="e_wo_entrp">   -476.10909607 </i>
    <i name="e_0_energy">   -476.10973570 </i>
   </energy>
  </scstep>
  <scstep>
   <time name="dav">   53.31   53.39</time>
   <time name="total">   53.97   54.06</time>
   <energy>
    <i name="e_fr_energy">   -450.22659485 </i>
    <i name="e_wo_entrp">   -450.22699670 </i>
    <i name="e_0_energy">   -450.22672880 </i>
   </energy>
  </scstep>
  <scstep>
   <time name="dav">   51.37   51.44</time>
   <time name="total">   52.03   52.10</time>
   <energy>
    <i name="e_fr_energy">   -402.93639569 </i>
    <i name="e_wo_entrp">   -402.94312735 </i>
    <i name="e_0_energy">   -402.93863958 </i>
   </energy>
  </scstep>
  <scstep>
   <time name="dav">   55.43   55.51</time>
   <time name="total">   56.09   56.19</time>
   <energy>
    <i name="e_fr_energy">   -387.88933106 </i>
    <i name="e_wo_entrp">   -387.88917100 </i>
    <i name="e_0_energy">   -387.88927771 </i>
   </energy>
  </scstep>
  <scstep>
   <time name="dav">   52.28   52.36</time>
   <time name="total">   52.94   53.02</time>
   <energy>
    <i name="e_fr_energy">   -365.60003738 </i>
    <i name="e_wo_entrp">   -365.58417666 </i>
    <i name="e_0_energy">   -365.59475047 </i>
   </energy>
  </scstep>
  <scstep>
   <time name="dav">   51.69   51.77</time>
   <time name="total">   52.36   52.46</time>
   <energy>
    <i name="e_fr_energy">   -336.45877391 </i>
    <i name="e_wo_entrp">   -336.44323055 </i>
    <i name="e_0_energy">   -336.45359279 </i>
   </energy>
  </scstep>
  <scstep>
   <time name="dav">   51.49   51.57</time>
   <time name="total">   52.15   52.24</time>
   <energy>
    <i name="e_fr_energy">   -325.33102050 </i>
    <i name="e_wo_entrp">   -325.31698887 </i>
    <i name="e_0_energy">   -325.32634329 </i>
   </energy>
  </scstep>
  <scstep>
   <time name="dav">   48.00   48.07</time>
   <time name="total">   48.66   48.76</time>
   <energy>
    <i name="e_fr_energy">   -318.47271480 </i>
    <i name="e_wo_entrp">   -318.44622504 </i>
    <i name="e_0_energy">   -318.46388488 </i>
   </energy>
  </scstep>
  <scstep>
   <time name="dav">   50.05   50.13</time>
   <time name="total">   50.70   50.79</time>
   <energy>
    <i name="e_fr_energy">   -315.70796410 </i>
    <i name="e_wo_entrp">   -315.67583501 </i>
    <i name="e_0_energy">   -315.69725441 </i>
   </energy>
  </scstep>
  <scstep>
   <time name="dav">   50.92   51.00</time>
   <time name="total">   51.58   51.67</time>
   <energy>
    <i name="e_fr_energy">   -321.50733347 </i>
    <i name="e_wo_entrp">   -321.48618937 </i>
    <i name="e_0_energy">   -321.50028544 </i>
   </energy>
  </scstep>
  <scstep>
   <time name="dav">   49.89   49.97</time>
   <time name="total">   50.55   50.62</time>
   <energy>
    <i name="e_fr_energy">   -313.39636871 </i>
    <i name="e_wo_entrp">   -313.39172917 </i>
    <i name="e_0_energy">   -313.39482220 </i>
   </energy>
  </scstep>
  <scstep>
   <time name="dav">   51.41   51.48</time>
   <time name="total">   52.07   52.15</time>
   <energy>
    <i name="e_fr_energy">   -308.92667497 </i>
    <i name="e_wo_entrp">   -308.92561980 </i>
    <i name="e_0_energy">   -308.92632325 </i>
   </energy>
  </scstep>
  <scstep>
   <time name="dav">   47.82   47.89</time>
   <time name="total">   48.49   48.56</time>
   <energy>
    <i name="e_fr_energy">   -307.23909730 </i>
    <i name="e_wo_entrp">   -307.22123621 </i>
    <i name="e_0_energy">   -307.23314360 </i>
   </energy>
  </scstep>
  <scstep>
   <time name="dav">   46.74   46.81</time>
   <time name="total">   47.40   47.48</time>
   <energy>
    <i name="e_fr_energy">   -307.67809121 </i>
    <i name="e_wo_entrp">   -307.66081412 </i>
    <i name="e_0_energy">   -307.67233218 </i>
   </energy>
  </scstep>
  <scstep>
   <time name="dav">   50.17   50.23</time>
   <time name="total">   50.82   50.89</time>
   <energy>
    <i name="e_fr_energy">   -307.32933575 </i>
    <i name="e_wo_entrp">   -307.31452663 </i>
    <i name="e_0_energy">   -307.32439938 </i>
   </energy>
  </scstep>
  <scstep>
   <time name="dav">   48.33   48.40</time>
   <time name="total">   48.99   49.07</time>
   <energy>
    <i name="e_fr_energy">   -307.06832174 </i>
    <i name="e_wo_entrp">   -307.05056139 </i>
    <i name="e_0_energy">   -307.06240162 </i>
   </energy>
  </scstep>
  <scstep>
   <time name="dav">   49.91   49.97</time>
   <time name="total">   50.58   50.64</time>
   <energy>
    <i name="e_fr_energy">   -306.95678257 </i>
    <i name="e_wo_entrp">   -306.94163179 </i>
    <i name="e_0_energy">   -306.95173231 </i>
   </energy>
  </scstep>
  <scstep>
   <time name="dav">   49.04   49.10</time>
   <time name="total">   49.70   49.78</time>
   <energy>
    <i name="e_fr_energy">   -306.61739933 </i>
    <i name="e_wo_entrp">   -306.60343501 </i>
    <i name="e_0_energy">   -306.61274455 </i>
   </energy>
  </scstep>
  <scstep>
   <time name="dav">   51.82   51.89</time>
   <time name="total">   52.47   52.54</time>
   <energy>
    <i name="e_fr_energy">   -306.41197912 </i>
    <i name="e_wo_entrp">   -306.39556025 </i>
    <i name="e_0_energy">   -306.40650616 </i>
   </energy>
  </scstep>
  <scstep>
   <time name="dav">   47.86   47.92</time>
   <time name="total">   48.52   48.59</time>
   <energy>
    <i name="e_fr_energy">   -306.34857568 </i>
    <i name="e_wo_entrp">   -306.33180144 </i>
    <i name="e_0_energy">   -306.34298427 </i>
   </energy>
  </scstep>
  <scstep>
   <time name="dav">   48.98   49.04</time>
   <time name="total">   49.62   49.69</time>
   <energy>
    <i name="e_fr_energy">   -306.30664684 </i>
    <i name="e_wo_entrp">   -306.28827372 </i>
    <i name="e_0_energy">   -306.30052247 </i>
   </energy>
  </scstep>
  <scstep>
   <time name="dav">   49.34   49.40</time>
   <time name="total">   49.99   50.07</time>
   <energy>
    <i name="e_fr_energy">   -306.29292675 </i>
    <i name="e_wo_entrp">   -306.27671001 </i>
    <i name="e_0_energy">   -306.28752117 </i>
   </energy>
  </scstep>
  <scstep>
   <time name="dav">   45.68   45.74</time>
   <time name="total">   46.33   46.39</time>
   <energy>
    <i name="e_fr_energy">   -306.35361896 </i>
    <i name="e_wo_entrp">   -306.33600527 </i>
    <i name="e_0_energy">   -306.34774773 </i>
   </energy>
  </scstep>
  <scstep>
   <time name="dav">   46.41   46.47</time>
   <time name="total">   47.08   47.15</time>
   <energy>
    <i name="e_fr_energy">   -306.29113921 </i>
    <i name="e_wo_entrp">   -306.27347333 </i>
    <i name="e_0_energy">   -306.28525058 </i>
   </energy>
  </scstep>
  <scstep>
   <time name="dav">   49.05   49.17</time>
   <time name="total">   49.71   49.83</time>
   <energy>
    <i name="e_fr_energy">   -306.26313874 </i>
    <i name="e_wo_entrp">   -306.24614736 </i>
    <i name="e_0_energy">   -306.25747495 </i>
   </energy>
  </scstep>
  <scstep>
   <time name="dav">   47.46   47.54</time>
   <time name="total">   48.12   48.21</time>
   <energy>
    <i name="e_fr_energy">   -306.25587436 </i>
    <i name="e_wo_entrp">   -306.23867325 </i>
    <i name="e_0_energy">   -306.25014066 </i>
   </energy>
  </scstep>
  <scstep>
   <time name="dav">   48.02   48.10</time>
   <time name="total">   48.68   48.75</time>
   <energy>
    <i name="e_fr_energy">   -306.25091251 </i>
    <i name="e_wo_entrp">   -306.23376297 </i>
    <i name="e_0_energy">   -306.24519599 </i>
   </energy>
  </scstep>
  <scstep>
   <time name="dav">   44.14   44.21</time>
   <time name="total">   44.80   44.88</time>
   <energy>
    <i name="e_fr_energy">   -306.24733715 </i>
    <i name="e_wo_entrp">   -306.23021149 </i>
    <i name="e_0_energy">   -306.24162860 </i>
   </energy>
  </scstep>
  <scstep>
   <time name="dav">   42.61   42.69</time>
   <time name="total">   43.27   43.35</time>
   <energy>
    <i name="e_fr_energy">   -306.24631912 </i>
    <i name="e_wo_entrp">   -306.22945902 </i>
    <i name="e_0_energy">   -306.24069909 </i>
   </energy>
  </scstep>
  <scstep>
   <time name="dav">   43.64   43.71</time>
   <time name="total">   44.30   44.37</time>
   <energy>
    <i name="e_fr_energy">   -306.24545858 </i>
    <i name="e_wo_entrp">   -306.22847786 </i>
    <i name="e_0_energy">   -306.23979834 </i>
   </energy>
  </scstep>
  <scstep>
   <time name="dav">   42.03   42.10</time>
   <time name="total">   42.69   42.75</time>
   <energy>
    <i name="e_fr_energy">   -306.24573123 </i>
    <i name="e_wo_entrp">   -306.22871731 </i>
    <i name="e_0_energy">   -306.24005993 </i>
   </energy>
  </scstep>
  <scstep>
   <time name="dav">   28.21   28.24</time>
   <time name="total">   28.89   28.93</time>
   <energy>
    <i name="e_fr_energy">   -306.24546338 </i>
    <i name="e_wo_entrp">   -306.22840659 </i>
    <i name="e_0_energy">   -306.23977778 </i>
   </energy>
  </scstep>
  <scstep>
   <time name="dav">   33.78   33.82</time>
   <time name="total">   34.44   34.48</time>
   <energy>
    <i name="e_fr_energy">   -306.24518741 </i>
    <i name="e_wo_entrp">   -306.22808982 </i>
    <i name="e_0_energy">   -306.23948821 </i>
   </energy>
  </scstep>
  <scstep>
   <time name="dav">   30.11   30.14</time>
   <time name="total">   30.79   30.86</time>
   <energy>
    <i name="e_fr_energy">   -306.24501799 </i>
    <i name="e_wo_entrp">   -306.22788623 </i>
    <i name="e_0_energy">   -306.23930741 </i>
   </energy>
  </scstep>
  <scstep>
   <time name="dav">   31.36   31.40</time>
   <time name="total">   31.45   31.49</time>
   <energy>
    <i name="alphaZ">   1173.71499705 </i>
    <i name="ewald"> -11083.39589163 </i>
    <i name="hartreedc">  -3088.55534503 </i>
    <i name="XCdc">   -843.06881489 </i>
    <i name="pawpsdc">  18913.05882480 </i>
    <i name="pawaedc"> -17451.17281450 </i>
    <i name="eentropy">     -0.01715607 </i>
    <i name="bandstr">   -762.12352281 </i>
    <i name="atom">  12835.31476492 </i>
    <i name="e_fr_energy">   -306.24495818 </i>
    <i name="e_wo_entrp">   -306.22780210 </i>
    <i name="e_0_energy">   -306.23923948 </i>
   </energy>
  </scstep>
  <structure>
   <crystal>
    <varray name="basis" >
     <v>      -3.16000000      -3.16000000      -3.16000000 </v>
     <v>       1.58000000       1.58000000      -7.90000000 </v>
     <v>       7.90000000      -7.90000000      -1.58000000 </v>
    </varray>
    <i name="volume">    473.31744000 </i>
    <varray name="rec_basis" >
     <v>      -0.13713080      -0.12658228      -0.05274262 </v>
     <v>       0.04219409       0.06329114      -0.10548523 </v>
     <v>       0.06329114      -0.06329114       0.00000000 </v>
    </varray>
   </crystal>
   <varray name="positions" >
    <v>       0.96666667       0.93333333       0.40000000 </v>
    <v>       0.63333333       0.26666667       0.40000000 </v>
    <v>       0.50000000       0.00000000       0.00000000 </v>
    <v>       0.00000000       0.00000000       0.00000000 </v>
    <v>       0.10000000       0.20000000       0.80000000 </v>
    <v>       0.03333333       0.06666667       0.60000000 </v>
    <v>       0.90000000       0.80000000       0.20000000 </v>
    <v>       0.80000000       0.60000000       0.40000000 </v>
    <v>       0.73333333       0.46666667       0.20000000 </v>
    <v>       0.66666667       0.33333333       0.00000000 </v>
    <v>       0.36666667       0.73333333       0.60000000 </v>
    <v>       0.13333333       0.26666667       0.40000000 </v>
    <v>       0.83333333       0.66666667       0.00000000 </v>
    <v>       0.93333333       0.86666667       0.80000000 </v>
    <v>       0.56666667       0.13333333       0.20000000 </v>
    <v>       0.40000000       0.80000000       0.20000000 </v>
    <v>       0.43333333       0.86666667       0.80000000 </v>
    <v>       0.30000000       0.60000000       0.40000000 </v>
    <v>       0.86666667       0.73333333       0.60000000 </v>
    <v>       0.46666667       0.93333333       0.40000000 </v>
    <v>       0.16666667       0.33333333       0.00000000 </v>
    <v>       0.26666667       0.53333333       0.80000000 </v>
    <v>       0.20000000       0.40000000       0.60000000 </v>
    <v>       0.06666667       0.13333333       0.20000000 </v>
    <v>       0.76666667       0.53333333       0.80000000 </v>
    <v>       0.60000000       0.20000000       0.80000000 </v>
    <v>       0.53333333       0.06666667       0.60000000 </v>
    <v>       0.33333333       0.66666667       0.00000000 </v>
    <v>       0.23333333       0.46666667       0.20000000 </v>
   </varray>
  </structure>
  <varray name="forces" >
   <v>       0.13716053       0.31889262       0.22078572 </v>
   <v>       0.48524217      -0.28818419      -0.20942367 </v>
   <v>      -0.07026221       0.36930964      -0.28996941 </v>
   <v>       0.26322146       0.00620024      -0.04310672 </v>
   <v>      -0.17794472       0.40494287      -0.69309472 </v>
   <v>      -0.05368002       0.42903899      -0.52745047 </v>
   <v>      -0.07633743      -0.50950255       0.17632825 </v>
   <v>      -0.42694779      -0.27009152       0.60128643 </v>
   <v>      -0.12995801       0.23086302       0.08760176 </v>
   <v>       0.07568823       0.67670189      -0.62923089 </v>
   <v>      -0.24525197      -0.36376585       0.37429702 </v>
   <v>      -0.18081700       0.16675187      -0.80366108 </v>
   <v>       0.06146386      -0.49571287       0.54205984 </v>
   <v>       0.04825769       0.50170880      -0.17775396 </v>
   <v>      -0.37305802       0.58172167      -0.11418429 </v>
   <v>      -0.70027048      -0.20185025       0.77110890 </v>
   <v>      -0.98420185       0.00694815       0.75125181 </v>
   <v>       0.46926408      -0.02267115      -0.17476942 </v>
   <v>      -0.01084464       0.11873590      -0.07756582 </v>
   <v>       0.66027374      -0.62079985       0.08520730 </v>
   <v>      -0.07356242      -0.07669001      -0.43783285 </v>
   <v>       0.16554705       0.10242623      -0.17616852 </v>
   <v>      -0.39236802      -0.04587326       0.42643398 </v>
   <v>       0.78536298      -0.07444733      -0.85712512 </v>
   <v>       0.36477084      -0.54462163       0.24295875 </v>
   <v>       0.20671827       0.01634333       0.16310980 </v>
   <v>       0.31218703      -0.31470121       0.22040473 </v>
   <v>      -0.36037843      -0.22486563       0.64771595 </v>
   <v>       0.22072509       0.12319211      -0.09921332 </v>
  </varray>
  <varray name="stress" >
   <v>      -2.62955089      -5.92781722       1.03975996 </v>
   <v>      -5.92781714      -8.09388368      -4.83416405 </v>
   <v>       1.03975992      -4.83416404      -1.76936767 </v>
  </varray>
  <energy>
   <i name="e_fr_energy">   -306.24495818 </i>
   <i name="e_wo_entrp">   -306.23923948 </i>
   <i name="e_0_energy">     -0.01715607 </i>
  </energy>
  <time name="totalsc"> 2296.37 2300.16</time>
 </calculation>
 <calculation>
  <scstep>
   <time name="dav">   33.36   33.40</time>
   <time name="total">   34.03   34.08</time>
   <energy>
    <i name="alphaZ">   1180.97109460 </i>
    <i name="ewald"> -11151.15574371 </i>
    <i name="hartreedc">  -3051.92315178 </i>
    <i name="XCdc">   -842.43015253 </i>
    <i name="pawpsdc">  18911.39664304 </i>
    <i name="pawaedc"> -17449.50830388 </i>
    <i name="eentropy">     -0.01246127 </i>
    <i name="bandstr">   -739.16638383 </i>
    <i name="atom">  12835.31476492 </i>
    <i name="e_fr_energy">   -306.51369444 </i>
    <i name="e_wo_entrp">   -306.50123317 </i>
    <i name="e_0_energy">   -306.50954069 </i>
   </energy>
  </scstep>
  <scstep>
   <time name="dav">   49.44   49.50</time>
   <time name="total">   50.10   50.16</time>
   <energy>
    <i name="e_fr_energy">   -307.73696540 </i>
    <i name="e_wo_entrp">   -307.73317595 </i>
    <i name="e_0_energy">   -307.73570225 </i>
   </energy>
  </scstep>
  <scstep>
   <time name="dav">   49.45   49.51</time>
   <time name="total">   50.10   50.18</time>
   <energy>
    <i name="e_fr_energy">   -306.84175994 </i>
    <i name="e_wo_entrp">   -306.83040569 </i>
    <i name="e_0_energy">   -306.83797519 </i>
   </energy>
  </scstep>
  <scstep>
   <time name="dav">   48.64   48.70</time>
   <time name="total">   49.31   49.37</time>
   <energy>
    <i name="e_fr_energy">   -306.83717586 </i>
    <i name="e_wo_entrp">   -306.82506157 </i>
    <i name="e_0_energy">   -306.83313776 </i>
   </energy>
  </scstep>
  <scstep>
   <time name="dav">   49.78   49.84</time>
   <time name="total">   50.44   50.53</time>
   <energy>
    <i name="e_fr_energy">   -306.78929439 </i>
    <i name="e_wo_entrp">   -306.77594917 </i>
    <i name="e_0_energy">   -306.78484599 </i>
   </energy>
  </scstep>
  <scstep>
   <time name="dav">   48.07   48.13</time>
   <time name="total">   48.74   48.80</time>
   <energy>
    <i name="e_fr_energy">   -306.77121442 </i>
    <i name="e_wo_entrp">   -306.76043747 </i>
    <i name="e_0_energy">   -306.76762211 </i>
   </energy>
  </scstep>
  <scstep>
   <time name="dav">   53.13   53.20</time>
   <time name="total">   53.82   53.93</time>
   <energy>
    <i name="e_fr_energy">   -306.77504711 </i>
    <i name="e_wo_entrp">   -306.76075430 </i>
    <i name="e_0_energy">   -306.77028284 </i>
   </energy>
  </scstep>
  <scstep>
   <time name="dav">   50.48   50.54</time>
   <time name="total">   51.14   51.20</time>
   <energy>
    <i name="e_fr_energy">   -306.77106385 </i>
    <i name="e_wo_entrp">   -306.75821230 </i>
    <i name="e_0_energy">   -306.76678000 </i>
   </energy>
  </scstep>
  <scstep>
   <time name="dav">   50.49   50.55</time>
   <time name="total">   51.16   51.23</time>
   <energy>
    <i name="e_fr_energy">   -306.76059087 </i>
    <i name="e_wo_entrp">   -306.74787272 </i>
    <i name="e_0_energy">   -306.75635149 </i>
   </energy>
  </scstep>
  <scstep>
   <time name="dav">   47.92   47.98</time>
   <time name="total">   48.57   48.63</time>
   <energy>
    <i name="e_fr_energy">   -306.75846600 </i>
    <i name="e_wo_entrp">   -306.74576479 </i>
    <i name="e_0_energy">   -306.75423226 </i>
   </energy>
  </scstep>
  <scstep>
   <time name="dav">   47.55   47.61</time>
   <time name="total">   48.22   48.28</time>
   <energy>
    <i name="e_fr_energy">   -306.75809489 </i>
    <i name="e_wo_entrp">   -306.74531285 </i>
    <i name="e_0_energy">   -306.75383421 </i>
   </energy>
  </scstep>
  <scstep>
   <time name="dav">   46.91   46.97</time>
   <time name="total">   47.56   47.62</time>
   <energy>
    <i name="e_fr_energy">   -306.75818973 </i>
    <i name="e_wo_entrp">   -306.74538203 </i>
    <i name="e_0_energy">   -306.75392050 </i>
   </energy>
  </scstep>
  <scstep>
   <time name="dav">   43.20   43.25</time>
   <time name="total">   43.85   43.92</time>
   <energy>
    <i name="e_fr_energy">   -306.75825110 </i>
    <i name="e_wo_entrp">   -306.74547791 </i>
    <i name="e_0_energy">   -306.75399337 </i>
   </energy>
  </scstep>
  <scstep>
   <time name="dav">   43.53   43.58</time>
   <time name="total">   44.18   44.23</time>
   <energy>
    <i name="e_fr_energy">   -306.75809873 </i>
    <i name="e_wo_entrp">   -306.74526140 </i>
    <i name="e_0_energy">   -306.75381962 </i>
   </energy>
  </scstep>
  <scstep>
   <time name="dav">   41.45   41.50</time>
   <time name="total">   42.11   42.17</time>
   <energy>
    <i name="e_fr_energy">   -306.75805063 </i>
    <i name="e_wo_entrp">   -306.74536070 </i>
    <i name="e_0_energy">   -306.75382065 </i>
   </energy>
  </scstep>
  <scstep>
   <time name="dav">   34.93   34.97</time>
   <time name="total">   34.99   35.04</time>
   <energy>
    <i name="alphaZ">   1180.97109460 </i>
    <i name="ewald"> -11151.15574371 </i>
    <i name="hartreedc">  -3038.29985084 </i>
    <i name="XCdc">   -842.79711230 </i>
    <i name="pawpsdc">  18980.38096659 </i>
    <i name="pawaedc"> -17519.21426756 </i>
    <i name="eentropy">     -0.01279594 </i>
    <i name="bandstr">   -751.94503562 </i>
    <i name="atom">  12835.31476492 </i>
    <i name="e_fr_energy">   -306.75797987 </i>
    <i name="e_wo_entrp">   -306.74518393 </i>
    <i name="e_0_energy">   -306.75371455 </i>
   </energy>
  </scstep>
  <structure>
   <crystal>
    <varray name="basis" >
     <v>      -3.14832540      -3.13071747      -3.15135965 </v>
     <v>       1.56931856       1.58788062      -7.89607687 </v>
     <v>       7.91199789      -7.88783678      -1.55582109 </v>
    </varray>
    <i name="volume">    470.40929302 </i>
    <varray name="rec_basis" >
     <v>      -0.13765337      -0.12761688      -0.05302156 </v>
     <v>       0.04248763       0.06341665      -0.10544797 </v>
     <v>       0.06318831      -0.06335952      -0.00018297 </v>
    </varray>
   </crystal>
   <varray name="positions" >
    <v>       0.96325013       0.93346266       0.39944511 </v>
    <v>       0.63241590       0.26784022       0.40236153 </v>
    <v>       0.49894738       0.00246022      -0.00134216 </v>
    <v>      -0.00166954       0.00077410       0.00078477 </v>
    <v>       0.10046789       0.20440129       0.79822025 </v>
    <v>       0.03241052       0.07055154       0.59852610 </v>
    <v>       0.90316772       0.79739162       0.20132260 </v>
    <v>       0.80294392       0.59524637       0.39952107 </v>
    <v>       0.73256037       0.46666124       0.19889829 </v>
    <v>       0.66363460       0.33875568      -0.00183509 </v>
    <v>       0.36955817       0.72981865       0.60036186 </v>
    <v>       0.13555611       0.27089750       0.39893876 </v>
    <v>       0.83457462       0.66251973       0.00170125 </v>
    <v>       0.93040260       0.86920135       0.79861546 </v>
    <v>       0.56587281       0.13493121       0.19708474 </v>
    <v>       0.40390327       0.79403416       0.19847816 </v>
    <v>       0.43789042       0.86086145       0.79697369 </v>
    <v>       0.29747869       0.60177537       0.40150204 </v>
    <v>       0.86621069       0.73406852       0.59960435 </v>
    <v>       0.46587281       0.93234823       0.40391154 </v>
    <v>       0.16873569       0.33517751       0.00000955 </v>
    <v>       0.26539425       0.53487955       0.80019273 </v>
    <v>       0.20179083       0.39689117       0.59894204 </v>
    <v>       0.06410659       0.13906648       0.20262529 </v>
    <v>       0.76696114       0.53117654       0.80277668 </v>
    <v>       0.59811762       0.19964064       0.80058128 </v>
    <v>       0.53262901       0.06521964       0.60191410 </v>
    <v>       0.33544254       0.66195036      -0.00041377 </v>
    <v>       0.23137326       0.46799700       0.20029780 </v>
   </varray>
  </structure>
  <varray name="forces" >
   <v>       0.10602948       0.21996641       0.03726554 </v>
   <v>       0.22229268      -0.19371227      -0.15916142 </v>
   <v>      -0.22611419       0.22883734       0.09546881 </v>
   <v>       0.09953841       0.05807641      -0.10181666 </v>
   <v>      -0.14164800       0.16749988      -0.32300184 </v>
   <v>       0.02920146       0.39750570      -0.37724067 </v>
   <v>      -0.06887152      -0.17664782       0.11560172 </v>
   <v>      -0.19096742      -0.16509969       0.32599765 </v>
   <v>      -0.00378518       0.04274109       0.13368227 </v>
   <v>      -0.03888077       0.47172799      -0.32635852 </v>
   <v>      -0.22048354      -0.27546700       0.30279760 </v>
   <v>      -0.04338879       0.07004337      -0.36481153 </v>
   <v>       0.01880966      -0.13465260      -0.00406536 </v>
   <v>       0.06749269       0.24308521      -0.18536340 </v>
   <v>      -0.09795552       0.23031171      -0.08754817 </v>
   <v>      -0.30649190      -0.08111656       0.20212419 </v>
   <v>      -0.32469852       0.09450442       0.46841443 </v>
   <v>       0.25278762      -0.14782745      -0.12650783 </v>
   <v>      -0.05110523       0.04556087      -0.03298458 </v>
   <v>       0.33716094      -0.33309160       0.12364770 </v>
   <v>      -0.06875799      -0.05195917      -0.31925359 </v>
   <v>       0.10550676       0.09212737      -0.05954339 </v>
   <v>      -0.35562072      -0.00906917       0.27172131 </v>
   <v>       0.47727871      -0.05818302      -0.52230292 </v>
   <v>       0.30590355      -0.44602918       0.19981606 </v>
   <v>       0.10812019       0.06318574       0.10390485 </v>
   <v>       0.23999350      -0.31391756       0.16387627 </v>
   <v>      -0.34279418      -0.14153147       0.53881748 </v>
   <v>       0.11144781       0.10313105      -0.09317601 </v>
  </varray>
  <varray name="stress" >
   <v>       6.00100611      -3.65897543       0.57379192 </v>
   <v>      -3.65897535       2.34172706      -2.03183300 </v>
   <v>       0.57379198      -2.03183304       6.58029114 </v>
  </varray>
  <energy>
   <i name="e_fr_energy">   -306.75797987 </i>
   <i name="e_wo_entrp">   -306.75371455 </i>
   <i name="e_0_energy">     -0.01279594 </i>
  </energy>
  <time name="totalsc">  767.46  768.56</time>
 </calculation>
 <calculation>
  <scstep>
   <time name="dav">   33.25   33.30</time>
   <time name="total">   33.88   33.97</time>
   <energy>
    <i name="alphaZ">   1188.33638747 </i>
    <i name="ewald"> -11212.19178325 </i>
    <i name="hartreedc">  -3007.17422632 </i>
    <i name="XCdc">   -842.14262267 </i>
    <i name="pawpsdc">  18980.36100314 </i>
    <i name="pawaedc"> -17519.18851479 </i>
    <i name="eentropy">     -0.00877906 </i>
    <i name="bandstr">   -729.98804975 </i>
    <i name="atom">  12835.31476492 </i>
    <i name="e_fr_energy">   -306.68182032 </i>
    <i name="e_wo_entrp">   -306.67304125 </i>
    <i name="e_0_energy">   -306.67889396 </i>
   </energy>
  </scstep>
  <scstep>
   <time name="dav">   49.68   49.83</time>
   <time name="total">   50.33   50.48</time>
   <energy>
    <i name="e_fr_energy">   -307.86488567 </i>
    <i name="e_wo_entrp">   -307.86501245 </i>
    <i name="e_0_energy">   -307.86492793 </i>
   </energy>
  </scstep>
  <scstep>
   <time name="dav">   49.55   49.62</time>
   <time name="total">   50.21   50.28</time>
   <energy>
    <i name="e_fr_energy">   -307.01948567 </i>
    <i name="e_wo_entrp">   -307.01213075 </i>
    <i name="e_0_energy">   -307.01703403 </i>
   </energy>
  </scstep>
  <scstep>
   <time name="dav">   48.66   48.73</time>
   <time name="total">   49.32   49.39</time>
   <energy>
    <i name="e_fr_energy">   -307.00840298 </i>
    <i name="e_wo_entrp">   -307.00060474 </i>
    <i name="e_0_energy">   -307.00580357 </i>
   </energy>
  </scstep>
  <scstep>
   <time name="dav">   48.80   48.86</time>
   <time name="total">   49.45   49.53</time>
   <energy>
    <i name="e_fr_energy">   -306.96791830 </i>
    <i name="e_wo_entrp">   -306.95916004 </i>
    <i name="e_0_energy">   -306.96499888 </i>
   </energy>
  </scstep>
  <scstep>
   <time name="dav">   49.07   49.13</time>
   <time name="total">   49.72   49.79</time>
   <energy>
    <i name="e_fr_energy">   -306.94755769 </i>
    <i name="e_wo_entrp">   -306.94083880 </i>
    <i name="e_0_energy">   -306.94531806 </i>
   </energy>
  </scstep>
  <scstep>
   <time name="dav">   52.48   52.54</time>
   <time name="total">   53.14   53.21</time>
   <energy>
    <i name="e_fr_energy">   -306.95485096 </i>
    <i name="e_wo_entrp">   -306.94506877 </i>
    <i name="e_0_energy">   -306.95159023 </i>
   </energy>
  </scstep>
  <scstep>
   <time name="dav">   50.62   50.68</time>
   <time name="total">   51.27   51.33</time>
   <energy>
    <i name="e_fr_energy">   -306.94714865 </i>
    <i name="e_wo_entrp">   -306.93900120 </i>
    <i name="e_0_energy">   -306.94443283 </i>
   </energy>
  </scstep>
  <scstep>
   <time name="dav">   50.44   50.50</time>
   <time name="total">   51.09   51.16</time>
   <energy>
    <i name="e_fr_energy">   -306.93882472 </i>
    <i name="e_wo_entrp">   -306.93041484 </i>
    <i name="e_0_energy">   -306.93602143 </i>
   </energy>
  </scstep>
  <scstep>
   <time name="dav">   46.73   46.78</time>
   <time name="total">   47.38   47.43</time>
   <energy>
    <i name="e_fr_energy">   -306.93698802 </i>
    <i name="e_wo_entrp">   -306.92880754 </i>
    <i name="e_0_energy">   -306.93426119 </i>
   </energy>
  </scstep>
  <scstep>
   <time name="dav">   46.48   46.53</time>
   <time name="total">   47.13   47.20</time>
   <energy>
    <i name="e_fr_energy">   -306.93681201 </i>
    <i name="e_wo_entrp">   -306.92842947 </i>
    <i name="e_0_energy">   -306.93401783 </i>
   </energy>
  </scstep>
  <scstep>
   <time name="dav">   47.12   47.18</time>
   <time name="total">   47.78   47.84</time>
   <energy>
    <i name="e_fr_energy">   -306.93685531 </i>
    <i name="e_wo_entrp">   -306.92850448 </i>
    <i name="e_0_energy">   -306.93407170 </i>
   </energy>
  </scstep>
  <scstep>
   <time name="dav">   45.44   45.49</time>
   <time name="total">   46.10   46.16</time>
   <energy>
    <i name="e_fr_energy">   -306.93695426 </i>
    <i name="e_wo_entrp">   -306.92865043 </i>
    <i name="e_0_energy">   -306.93418631 </i>
   </energy>
  </scstep>
  <scstep>
   <time name="dav">   42.81   42.87</time>
   <time name="total">   43.46   43.52</time>
   <energy>
    <i name="e_fr_energy">   -306.93683263 </i>
    <i name="e_wo_entrp">   -306.92843526 </i>
    <i name="e_0_energy">   -306.93403351 </i>
   </energy>
  </scstep>
  <scstep>
   <time name="dav">   40.46   40.51</time>
   <time name="total">   41.13   41.19</time>
   <energy>
    <i name="e_fr_energy">   -306.93676992 </i>
    <i name="e_wo_entrp">   -306.92850368 </i>
    <i name="e_0_energy">   -306.93401451 </i>
   </energy>
  </scstep>
  <scstep>
   <time name="dav">   32.68   32.72</time>
   <time name="total">   32.75   32.79</time>
   <energy>
    <i name="alphaZ">   1188.33638747 </i>
    <i name="ewald"> -11212.19178325 </i>
    <i name="hartreedc">  -2994.23776426 </i>
    <i name="XCdc">   -842.49902559 </i>
    <i name="pawpsdc">  19091.63210338 </i>
    <i name="pawaedc"> -17631.09142034 </i>
    <i name="eentropy">     -0.00834656 </i>
    <i name="bandstr">   -742.19161651 </i>
    <i name="atom">  12835.31476492 </i>
    <i name="e_fr_energy">   -306.93670074 </i>
    <i name="e_wo_entrp">   -306.92835418 </i>
    <i name="e_0_energy">   -306.93391856 </i>
   </energy>
  </scstep>
  <structure>
   <crystal>
    <varray name="basis" >
     <v>      -3.13663849      -3.10140403      -3.14271018 </v>
     <v>       1.55862586       1.59576956      -7.89214960 </v>
     <v>       7.92400844      -7.87566072      -1.53161667 </v>
    </varray>
    <i name="volume">    467.49370258 </i>
    <varray name="rec_basis" >
     <v>      -0.13818368      -0.12866535      -0.05330574 </v>
     <v>       0.04278294       0.06354522      -0.10541030 </v>
     <v>       0.06308488      -0.06343001      -0.00036669 </v>
    </varray>
   </crystal>
   <varray name="positions" >
    <v>       0.95980762       0.93359640       0.39888595 </v>
    <v>       0.63150247       0.26901976       0.40472594 </v>
    <v>       0.49788088       0.00492377      -0.00268404 </v>
    <v>      -0.00334721       0.00155271       0.00156942 </v>
    <v>       0.10092987       0.20880591       0.79644429 </v>
    <v>       0.03147377       0.07444139       0.59705415 </v>
    <v>       0.90636379       0.79477663       0.20264709 </v>
    <v>       0.80590711       0.59048111       0.39903932 </v>
    <v>       0.73177717       0.46665552       0.19779453 </v>
    <v>       0.66057209       0.34418779      -0.00366918 </v>
    <v>       0.37247204       0.72629526       0.60072322 </v>
    <v>       0.13778829       0.27512979       0.39788384 </v>
    <v>       0.83583314       0.65836725       0.00340083 </v>
    <v>       0.92744488       0.87174212       0.79722914 </v>
    <v>       0.56506000       0.13652881       0.19416734 </v>
    <v>       0.40782802       0.78805226       0.19695204 </v>
    <v>       0.44246669       0.85503755       0.79394241 </v>
    <v>       0.29494637       0.60355882       0.40300496 </v>
    <v>       0.86574962       0.73480491       0.59920862 </v>
    <v>       0.46509131       0.93136785       0.40782523 </v>
    <v>       0.17081847       0.33702134       0.00002360 </v>
    <v>       0.26411357       0.53643006       0.80038606 </v>
    <v>       0.20358999       0.39377399       0.59788129 </v>
    <v>       0.06153926       0.14481482       0.20525726 </v>
    <v>       0.76727065       0.52901978       0.80555413 </v>
    <v>       0.59622502       0.19928422       0.80116065 </v>
    <v>       0.53192882       0.06377400       0.60382776 </v>
    <v>       0.33756557       0.65722376      -0.00083116 </v>
    <v>       0.22940073       0.46933243       0.20059529 </v>
   </varray>
  </structure>
  <varray name="forces" >
   <v>       0.08620309       0.12072144      -0.14628509 </v>
   <v>      -0.03462954      -0.12587062      -0.14110831 </v>
   <v>      -0.38924331       0.08826878       0.46704823 </v>
   <v>      -0.02484847       0.08478031      -0.14129533 </v>
   <v>      -0.07527064      -0.03016219       0.01015080 </v>
   <v>       0.13357052       0.34938988      -0.21317589 </v>
   <v>      -0.05849446       0.16060328       0.06214064 </v>
   <v>       0.08408359      -0.02761130      -0.01335984 </v>
   <v>       0.16683527      -0.20911115       0.18474982 </v>
   <v>      -0.16936596       0.22085628       0.04365295 </v>
   <v>      -0.21265005      -0.18972526       0.23506800 </v>
   <v>       0.07338064      -0.05321908       0.13761018 </v>
   <v>      -0.02787604       0.24527392      -0.60439644 </v>
   <v>       0.04688427       0.00000659      -0.18646993 </v>
   <v>       0.16770806      -0.11563918      -0.07875397 </v>
   <v>       0.09254607       0.08160579      -0.30328566 </v>
   <v>       0.27521743       0.15370098       0.20198219 </v>
   <v>       0.01768148      -0.25198268      -0.09050059 </v>
   <v>      -0.09664195      -0.03983305       0.02583525 </v>
   <v>       0.02626618      -0.06109861       0.16813712 </v>
   <v>      -0.04737370      -0.01773342      -0.17075332 </v>
   <v>       0.04667222       0.07105618       0.06722479 </v>
   <v>      -0.28293575       0.00893385       0.08604665 </v>
   <v>       0.15926842      -0.01399311      -0.15973776 </v>
   <v>       0.21344192      -0.30692959       0.14837010 </v>
   <v>      -0.01978719       0.12260965       0.03212934 </v>
   <v>       0.15491396      -0.29615022       0.09389836 </v>
   <v>      -0.27907750      -0.02964359       0.38462605 </v>
   <v>      -0.02647856       0.06089611      -0.09954836 </v>
  </varray>
  <varray name="stress" >
   <v>      18.22246207      -1.60534451      -0.77129280 </v>
   <v>      -1.60534452      16.57712673       1.15193347 </v>
   <v>      -0.77129272       1.15193345      18.51875749 </v>
  </varray>
  <energy>
   <i name="e_fr_energy">   -306.93670074 </i>
   <i name="e_wo_entrp">   -306.93391856 </i>
   <i name="e_0_energy">     -0.00834656 </i>
  </energy>
  <time name="totalsc">  763.30  764.48</time>
 </calculation>
 <calculation>
  <scstep>
   <time name="dav">   41.21   41.27</time>
   <time name="total">   41.86   41.93</time>
   <energy>
    <i name="alphaZ">   1155.43684747 </i>
    <i name="ewald"> -11118.25752450 </i>
    <i name="hartreedc">  -2955.73235830 </i>
    <i name="XCdc">   -846.21997265 </i>
    <i name="pawpsdc">  19091.51629105 </i>
    <i name="pawaedc"> -17630.96920136 </i>
    <i name="eentropy">     -0.00410666 </i>
    <i name="bandstr">   -838.52040395 </i>
    <i name="atom">  12835.31476492 </i>
    <i name="e_fr_energy">   -307.43566399 </i>
    <i name="e_wo_entrp">   -307.43155733 </i>
    <i name="e_0_energy">   -307.43429510 </i>
   </energy>
  </scstep>
  <scstep>
   <time name="dav">   52.27   52.33</time>
   <time name="total">   52.92   52.99</time>
   <energy>
    <i name="e_fr_energy">   -308.19843700 </i>
    <i name="e_wo_entrp">   -308.18971342 </i>
    <i name="e_0_energy">   -308.19552914 </i>
   </energy>
  </scstep>
  <scstep>
   <time name="dav">   51.38   51.45</time>
   <time name="total">   52.03   52.09</time>
   <energy>
    <i name="e_fr_energy">   -307.65759974 </i>
    <i name="e_wo_entrp">   -307.65401996 </i>
    <i name="e_0_energy">   -307.65640648 </i>
   </energy>
  </scstep>
  <scstep>
   <time name="dav">   47.89   47.94</time>
   <time name="total">   48.54   48.61</time>
   <energy>
    <i name="e_fr_energy">   -307.38589506 </i>
    <i name="e_wo_entrp">   -307.38481663 </i>
    <i name="e_0_energy">   -307.38553559 </i>
   </energy>
  </scstep>
  <scstep>
   <time name="dav">   51.29   51.36</time>
   <time name="total">   51.94   52.01</time>
   <energy>
    <i name="e_fr_energy">   -307.14098266 </i>
    <i name="e_wo_entrp">   -307.13643659 </i>
    <i name="e_0_energy">   -307.13946730 </i>
   </energy>
  </scstep>
  <scstep>
   <time name="dav">   50.16   50.23</time>
   <time name="total">   50.83   50.91</time>
   <energy>
    <i name="e_fr_energy">   -307.01603306 </i>
    <i name="e_wo_entrp">   -307.01331868 </i>
    <i name="e_0_energy">   -307.01512827 </i>
   </energy>
  </scstep>
  <scstep>
   <time name="dav">   50.35   50.42</time>
   <time name="total">   51.00   51.06</time>
   <energy>
    <i name="e_fr_energy">   -307.00405744 </i>
    <i name="e_wo_entrp">   -306.99989215 </i>
[...]
       <r>    4.6874    1.0000 </r>
       <r>    4.7746    1.0000 </r>
       <r>    4.8001    1.0000 </r>
       <r>    4.8706    1.0000 </r>
       <r>    4.8993    1.0000 </r>
       <r>    4.9789    1.0000 </r>
       <r>    5.0148    1.0000 </r>
       <r>    5.0406    1.0000 </r>
       <r>    5.1280    1.0000 </r>
       <r>    5.1963    1.0000 </r>
       <r>    5.2325    1.0000 </r>
       <r>    5.2998    1.0000 </r>
       <r>    5.3254    1.0000 </r>
       <r>    5.3617    1.0000 </r>
       <r>    5.4241    1.0000 </r>
       <r>    5.4613    1.0000 </r>
       <r>    5.5358    1.0000 </r>
       <r>    5.5565    1.0000 </r>
       <r>    5.5958    1.0000 </r>
       <r>    5.6878    1.0000 </r>
       <r>    5.7455    1.0000 </r>
       <r>    5.7868    1.0000 </r>
       <r>    5.9068    1.0000 </r>
       <r>    5.9389    1.0000 </r>
       <r>    5.9729    1.0001 </r>
       <r>    6.0384    1.0005 </r>
       <r>    6.1055    1.0022 </r>
       <r>    6.1472    1.0050 </r>
       <r>    6.2175    1.0149 </r>
       <r>    6.2670    1.0259 </r>
       <r>    6.3024    1.0331 </r>
       <r>    6.3509    1.0335 </r>
       <r>    6.3758    1.0246 </r>
       <r>    6.4217    0.9807 </r>
       <r>    6.5095    0.7606 </r>
       <r>    6.5241    0.7072 </r>
       <r>    6.5419    0.6373 </r>
       <r>    6.6397    0.2409 </r>
       <r>    6.7128    0.0438 </r>
       <r>    6.7560   -0.0124 </r>
       <r>    6.8643   -0.0299 </r>
       <r>    6.9478   -0.0121 </r>
       <r>    6.9959   -0.0056 </r>
       <r>    7.0976   -0.0007 </r>
       <r>    7.1739   -0.0001 </r>
       <r>    7.3051   -0.0000 </r>
       <r>    7.3487   -0.0000 </r>
       <r>    7.4552   -0.0000 </r>
       <r>    7.5869   -0.0000 </r>
       <r>    7.6899   -0.0000 </r>
       <r>    7.8376   -0.0000 </r>
       <r>    7.9695   -0.0000 </r>
       <r>    8.0322   -0.0000 </r>
       <r>    8.2239   -0.0000 </r>
       <r>    8.3125   -0.0000 </r>
       <r>    8.3925   -0.0000 </r>
       <r>    8.5089   -0.0000 </r>
       <r>    8.5420   -0.0000 </r>
       <r>    8.6162   -0.0000 </r>
       <r>    8.6516   -0.0000 </r>
       <r>    8.7079   -0.0000 </r>
      </set>
     </set>
    </set>
   </array>
  </eigenvalues>
  <separator name="orbital magnetization" >
   <v name="MAGDIPOLOUT">      0.00000000      0.00000000      0.00000000</v>
  </separator>
  <dos>
   <i name="efermi">      6.57481460 </i>
   <total>
    <array>
     <dimension dim="1">gridpoints</dimension>
     <dimension dim="2">spin</dimension>
     <field>energy</field>
     <field>total</field>
     <field>integrated</field>
     <set>
      <set comment="spin 1">
       <r>   -50.3915     0.0000     0.0000 </r>
       <r>   -50.1847     0.0000     0.0000 </r>
       <r>   -49.9780     0.0000     0.0000 </r>
       <r>   -49.7712     0.0000     0.0000 </r>
       <r>   -49.5644     0.0000     0.0000 </r>
       <r>   -49.3576    -0.0000    -0.0000 </r>
       <r>   -49.1509    -0.0000    -0.0000 </r>
       <r>   -48.9441    -0.0000    -0.0000 </r>
       <r>   -48.7373    -0.0000    -0.0000 </r>
       <r>   -48.5305    -0.0000    -0.0000 </r>
       <r>   -48.3238    -0.0000    -0.0000 </r>
       <r>   -48.1170    -0.0049    -0.0010 </r>
       <r>   -47.9102    -0.3176    -0.0667 </r>
       <r>   -47.7035    -0.0666    -0.0804 </r>
       <r>   -47.4967    19.4416     3.9395 </r>
       <r>   -47.2899    25.1201     9.1337 </r>
       <r>   -47.0831    12.5902    11.7370 </r>
       <r>   -46.8764     1.6418    12.0765 </r>
       <r>   -46.6696    -0.3564    12.0028 </r>
       <r>   -46.4628    -0.0134    12.0000 </r>
       <r>   -46.2561    -0.0000    12.0000 </r>
       <r>   -46.0493    -0.0000    12.0000 </r>
       <r>   -45.8425    -0.0000    12.0000 </r>
       <r>   -45.6357     0.0000    12.0000 </r>
       <r>   -45.4290     0.0000    12.0000 </r>
       <r>   -45.2222     0.0000    12.0000 </r>
       <r>   -45.0154     0.0000    12.0000 </r>
       <r>   -44.8086     0.0000    12.0000 </r>
       <r>   -44.6019     0.0000    12.0000 </r>
       <r>   -44.3951     0.0000    12.0000 </r>
       <r>   -44.1883     0.0000    12.0000 </r>
       <r>   -43.9816     0.0000    12.0000 </r>
       <r>   -43.7748     0.0000    12.0000 </r>
       <r>   -43.5680     0.0000    12.0000 </r>
       <r>   -43.3612     0.0000    12.0000 </r>
       <r>   -43.1545     0.0000    12.0000 </r>
       <r>   -42.9477     0.0000    12.0000 </r>
       <r>   -42.7409     0.0000    12.0000 </r>
       <r>   -42.5342     0.0000    12.0000 </r>
       <r>   -42.3274     0.0000    12.0000 </r>
       <r>   -42.1206     0.0000    12.0000 </r>
       <r>   -41.9138     0.0000    12.0000 </r>
       <r>   -41.7071     0.0000    12.0000 </r>
       <r>   -41.5003     0.0000    12.0000 </r>
       <r>   -41.2935     0.0000    12.0000 </r>
       <r>   -41.0867     0.0000    12.0000 </r>
       <r>   -40.8800     0.0000    12.0000 </r>
       <r>   -40.6732     0.0000    12.0000 </r>
       <r>   -40.4664     0.0000    12.0000 </r>
       <r>   -40.2597     0.0000    12.0000 </r>
       <r>   -40.0529     0.0000    12.0000 </r>
       <r>   -39.8461     0.0000    12.0000 </r>
       <r>   -39.6393     0.0000    12.0000 </r>
       <r>   -39.4326     0.0000    12.0000 </r>
       <r>   -39.2258     0.0000    12.0000 </r>
       <r>   -39.0190     0.0000    12.0000 </r>
       <r>   -38.8123     0.0000    12.0000 </r>
       <r>   -38.6055     0.0000    12.0000 </r>
       <r>   -38.3987     0.0000    12.0000 </r>
       <r>   -38.1919     0.0000    12.0000 </r>
       <r>   -37.9852     0.0000    12.0000 </r>
       <r>   -37.7784     0.0000    12.0000 </r>
       <r>   -37.5716     0.0000    12.0000 </r>
       <r>   -37.3648     0.0000    12.0000 </r>
       <r>   -37.1581     0.0000    12.0000 </r>
       <r>   -36.9513     0.0000    12.0000 </r>
       <r>   -36.7445     0.0000    12.0000 </r>
       <r>   -36.5378     0.0000    12.0000 </r>
       <r>   -36.3310     0.0000    12.0000 </r>
       <r>   -36.1242     0.0000    12.0000 </r>
       <r>   -35.9174     0.0000    12.0000 </r>
       <r>   -35.7107     0.0000    12.0000 </r>
       <r>   -35.5039     0.0000    12.0000 </r>
       <r>   -35.2971     0.0000    12.0000 </r>
       <r>   -35.0904     0.0000    12.0000 </r>
       <r>   -34.8836     0.0000    12.0000 </r>
       <r>   -34.6768     0.0000    12.0000 </r>
       <r>   -34.4700     0.0000    12.0000 </r>
       <r>   -34.2633     0.0000    12.0000 </r>
       <r>   -34.0565     0.0000    12.0000 </r>
       <r>   -33.8497     0.0000    12.0000 </r>
       <r>   -33.6429     0.0000    12.0000 </r>
       <r>   -33.4362     0.0000    12.0000 </r>
       <r>   -33.2294     0.0000    12.0000 </r>
       <r>   -33.0226     0.0000    12.0000 </r>
       <r>   -32.8159     0.0000    12.0000 </r>
       <r>   -32.6091     0.0000    12.0000 </r>
       <r>   -32.4023     0.0000    12.0000 </r>
       <r>   -32.1955     0.0000    12.0000 </r>
       <r>   -31.9888     0.0000    12.0000 </r>
       <r>   -31.7820     0.0000    12.0000 </r>
       <r>   -31.5752     0.0000    12.0000 </r>
       <r>   -31.3685     0.0000    12.0000 </r>
       <r>   -31.1617     0.0000    12.0000 </r>
       <r>   -30.9549     0.0000    12.0000 </r>
       <r>   -30.7481     0.0000    12.0000 </r>
       <r>   -30.5414     0.0000    12.0000 </r>
       <r>   -30.3346     0.0000    12.0000 </r>
       <r>   -30.1278     0.0000    12.0000 </r>
       <r>   -29.9210     0.0000    12.0000 </r>
       <r>   -29.7143     0.0000    12.0000 </r>
       <r>   -29.5075     0.0000    12.0000 </r>
       <r>   -29.3007     0.0000    12.0000 </r>
       <r>   -29.0940     0.0000    12.0000 </r>
       <r>   -28.8872     0.0000    12.0000 </r>
       <r>   -28.6804     0.0000    12.0000 </r>
       <r>   -28.4736     0.0000    12.0000 </r>
       <r>   -28.2669     0.0000    12.0000 </r>
       <r>   -28.0601     0.0000    12.0000 </r>
       <r>   -27.8533     0.0000    12.0000 </r>
       <r>   -27.6466     0.0000    12.0000 </r>
       <r>   -27.4398     0.0000    12.0000 </r>
       <r>   -27.2330     0.0000    12.0000 </r>
       <r>   -27.0262     0.0000    12.0000 </r>
       <r>   -26.8195     0.0000    12.0000 </r>
       <r>   -26.6127     0.0000    12.0000 </r>
       <r>   -26.4059     0.0000    12.0000 </r>
       <r>   -26.1991     0.0000    12.0000 </r>
       <r>   -25.9924    -0.0000    12.0000 </r>
       <r>   -25.7856    -0.0000    12.0000 </r>
       <r>   -25.5788    -0.0000    12.0000 </r>
       <r>   -25.3721    -0.0000    12.0000 </r>
       <r>   -25.1653    -0.0000    12.0000 </r>
       <r>   -24.9585    -0.0000    12.0000 </r>
       <r>   -24.7517    -0.0087    11.9982 </r>
       <r>   -24.5450    -0.2276    11.9511 </r>
       <r>   -24.3382     0.8539    12.1277 </r>
       <r>   -24.1314     9.5731    14.1071 </r>
       <r>   -23.9247    14.1295    17.0287 </r>
       <r>   -23.7179    29.7981    23.1901 </r>
       <r>   -23.5111    47.8484    33.0839 </r>
       <r>   -23.3043    39.9112    41.3364 </r>
       <r>   -23.0976    22.7520    46.0409 </r>
       <r>   -22.8908     6.9649    47.4810 </r>
       <r>   -22.6840     2.3110    47.9589 </r>
       <r>   -22.4773     0.2765    48.0160 </r>
       <r>   -22.2705    -0.0753    48.0005 </r>
       <r>   -22.0637    -0.0022    48.0000 </r>
       <r>   -21.8569    -0.0000    48.0000 </r>
       <r>   -21.6502    -0.0000    48.0000 </r>
       <r>   -21.4434    -0.0000    48.0000 </r>
       <r>   -21.2366     0.0000    48.0000 </r>
       <r>   -21.0298     0.0000    48.0000 </r>
       <r>   -20.8231     0.0000    48.0000 </r>
       <r>   -20.6163     0.0000    48.0000 </r>
       <r>   -20.4095     0.0000    48.0000 </r>
       <r>   -20.2028     0.0000    48.0000 </r>
       <r>   -19.9960     0.0000    48.0000 </r>
       <r>   -19.7892     0.0000    48.0000 </r>
       <r>   -19.5824     0.0000    48.0000 </r>
       <r>   -19.3757     0.0000    48.0000 </r>
       <r>   -19.1689     0.0000    48.0000 </r>
       <r>   -18.9621     0.0000    48.0000 </r>
       <r>   -18.7554     0.0000    48.0000 </r>
       <r>   -18.5486     0.0000    48.0000 </r>
       <r>   -18.3418     0.0000    48.0000 </r>
       <r>   -18.1350     0.0000    48.0000 </r>
       <r>   -17.9283     0.0000    48.0000 </r>
       <r>   -17.7215     0.0000    48.0000 </r>
       <r>   -17.5147     0.0000    48.0000 </r>
       <r>   -17.3079     0.0000    48.0000 </r>
       <r>   -17.1012     0.0000    48.0000 </r>
       <r>   -16.8944     0.0000    48.0000 </r>
       <r>   -16.6876     0.0000    48.0000 </r>
       <r>   -16.4809     0.0000    48.0000 </r>
       <r>   -16.2741     0.0000    48.0000 </r>
       <r>   -16.0673     0.0000    48.0000 </r>
       <r>   -15.8605     0.0000    48.0000 </r>
       <r>   -15.6538     0.0000    48.0000 </r>
       <r>   -15.4470     0.0000    48.0000 </r>
       <r>   -15.2402     0.0000    48.0000 </r>
       <r>   -15.0335     0.0000    48.0000 </r>
       <r>   -14.8267     0.0000    48.0000 </r>
       <r>   -14.6199     0.0000    48.0000 </r>
       <r>   -14.4131     0.0000    48.0000 </r>
       <r>   -14.2064     0.0000    48.0000 </r>
       <r>   -13.9996     0.0000    48.0000 </r>
       <r>   -13.7928     0.0000    48.0000 </r>
       <r>   -13.5860     0.0000    48.0000 </r>
       <r>   -13.3793     0.0000    48.0000 </r>
       <r>   -13.1725     0.0000    48.0000 </r>
       <r>   -12.9657     0.0000    48.0000 </r>
       <r>   -12.7590     0.0000    48.0000 </r>
       <r>   -12.5522     0.0000    48.0000 </r>
       <r>   -12.3454     0.0000    48.0000 </r>
       <r>   -12.1386     0.0000    48.0000 </r>
       <r>   -11.9319     0.0000    48.0000 </r>
       <r>   -11.7251     0.0000    48.0000 </r>
       <r>   -11.5183     0.0000    48.0000 </r>
       <r>   -11.3116     0.0000    48.0000 </r>
       <r>   -11.1048     0.0000    48.0000 </r>
       <r>   -10.8980     0.0000    48.0000 </r>
       <r>   -10.6912     0.0000    48.0000 </r>
       <r>   -10.4845     0.0000    48.0000 </r>
       <r>   -10.2777     0.0000    48.0000 </r>
       <r>   -10.0709     0.0000    48.0000 </r>
       <r>    -9.8641     0.0000    48.0000 </r>
       <r>    -9.6574     0.0000    48.0000 </r>
       <r>    -9.4506     0.0000    48.0000 </r>
       <r>    -9.2438     0.0000    48.0000 </r>
       <r>    -9.0371     0.0000    48.0000 </r>
       <r>    -8.8303     0.0000    48.0000 </r>
       <r>    -8.6235     0.0000    48.0000 </r>
       <r>    -8.4167     0.0000    48.0000 </r>
       <r>    -8.2100     0.0000    48.0000 </r>
       <r>    -8.0032     0.0000    48.0000 </r>
       <r>    -7.7964     0.0000    48.0000 </r>
       <r>    -7.5897     0.0000    48.0000 </r>
       <r>    -7.3829     0.0000    48.0000 </r>
       <r>    -7.1761     0.0000    48.0000 </r>
       <r>    -6.9693     0.0000    48.0000 </r>
       <r>    -6.7626     0.0000    48.0000 </r>
       <r>    -6.5558     0.0000    48.0000 </r>
       <r>    -6.3490     0.0000    48.0000 </r>
       <r>    -6.1422     0.0000    48.0000 </r>
       <r>    -5.9355     0.0000    48.0000 </r>
       <r>    -5.7287     0.0000    48.0000 </r>
       <r>    -5.5219     0.0000    48.0000 </r>
       <r>    -5.3152     0.0000    48.0000 </r>
       <r>    -5.1084     0.0000    48.0000 </r>
       <r>    -4.9016     0.0000    48.0000 </r>
       <r>    -4.6948     0.0000    48.0000 </r>
       <r>    -4.4881     0.0000    48.0000 </r>
       <r>    -4.2813     0.0000    48.0000 </r>
       <r>    -4.0745     0.0000    48.0000 </r>
       <r>    -3.8678     0.0000    48.0000 </r>
       <r>    -3.6610     0.0000    48.0000 </r>
       <r>    -3.4542     0.0000    48.0000 </r>
       <r>    -3.2474     0.0000    48.0000 </r>
       <r>    -3.0407     0.0000    48.0000 </r>
       <r>    -2.8339     0.0000    48.0000 </r>
       <r>    -2.6271     0.0000    48.0000 </r>
       <r>    -2.4203     0.0000    48.0000 </r>
       <r>    -2.2136     0.0000    48.0000 </r>
       <r>    -2.0068    -0.0000    48.0000 </r>
       <r>    -1.8000    -0.0000    48.0000 </r>
       <r>    -1.5933    -0.0000    48.0000 </r>
       <r>    -1.3865    -0.0000    48.0000 </r>
       <r>    -1.1797    -0.0000    48.0000 </r>
       <r>    -0.9729    -0.0000    48.0000 </r>
       <r>    -0.7662    -0.0001    48.0000 </r>
       <r>    -0.5594    -0.0038    47.9992 </r>
       <r>    -0.3526    -0.0171    47.9957 </r>
       <r>    -0.1459     0.2466    48.0466 </r>
       <r>     0.0609     1.0461    48.2629 </r>
       <r>     0.2677     1.3115    48.5341 </r>
       <r>     0.4745     1.8150    48.9094 </r>
       <r>     0.6812     2.0654    49.3365 </r>
       <r>     0.8880     1.8454    49.7181 </r>
       <r>     1.0948     2.9581    50.3297 </r>
       <r>     1.3016     3.1544    50.9820 </r>
       <r>     1.5083     3.2658    51.6572 </r>
       <r>     1.7151     3.6044    52.4025 </r>
       <r>     1.9219     4.7550    53.3857 </r>
       <r>     2.1286     5.3779    54.4977 </r>
       <r>     2.3354     6.9743    55.9398 </r>
       <r>     2.5422    10.7390    58.1603 </r>
       <r>     2.7490    17.2463    61.7264 </r>
       <r>     2.9557    22.2218    66.3212 </r>
       <r>     3.1625    25.4099    71.5753 </r>
       <r>     3.3693    28.5935    77.4876 </r>
       <r>     3.5760    31.4662    83.9940 </r>
       <r>     3.7828    31.0573    90.4158 </r>
       <r>     3.9896    30.9697    96.8194 </r>
       <r>     4.1964    30.0329   103.0294 </r>
       <r>     4.4031    28.0511   108.8296 </r>
       <r>     4.6099    26.2745   114.2624 </r>
       <r>     4.8167    32.1417   120.9084 </r>
       <r>     5.0235    39.6723   129.1116 </r>
       <r>     5.2302    43.3744   138.0802 </r>
       <r>     5.4370    41.8207   146.7276 </r>
       <r>     5.6438    39.3550   154.8651 </r>
       <r>     5.8505    39.4417   163.0205 </r>
       <r>     6.0573    42.8648   171.8838 </r>
       <r>     6.2641    43.1797   180.8121 </r>
       <r>     6.4709    40.7531   189.2387 </r>
       <r>     6.6776    34.8836   196.4517 </r>
       <r>     6.8844    30.5035   202.7590 </r>
       <r>     7.0912    26.4838   208.2351 </r>
       <r>     7.2979    23.4712   213.0882 </r>
       <r>     7.5047    19.2507   217.0688 </r>
       <r>     7.7115    18.7505   220.9458 </r>
       <r>     7.9183    20.0289   225.0873 </r>
       <r>     8.1250    23.0728   229.8581 </r>
       <r>     8.3318    23.7823   234.7756 </r>
       <r>     8.5386    17.5001   238.3941 </r>
       <r>     8.7454     7.4311   239.9307 </r>
       <r>     8.9521     0.4848   240.0309 </r>
       <r>     9.1589    -0.1397   240.0020 </r>
       <r>     9.3657    -0.0097   240.0000 </r>
       <r>     9.5724    -0.0001   240.0000 </r>
       <r>     9.7792    -0.0000   240.0000 </r>
       <r>     9.9860    -0.0000   240.0000 </r>
       <r>    10.1928    -0.0000   240.0000 </r>
       <r>    10.3995     0.0000   240.0000 </r>
       <r>    10.6063     0.0000   240.0000 </r>
       <r>    10.8131     0.0000   240.0000 </r>
       <r>    11.0198     0.0000   240.0000 </r>
       <r>    11.2266     0.0000   240.0000 </r>
       <r>    11.4334     0.0000   240.0000 </r>
       <r>    11.6402     0.0000   240.0000 </r>
      </set>
     </set>
    </array>
   </total>
  </dos>
 </calculation>
 <structure name="finalpos" >
  <crystal>
   <varray name="basis" >
    <v>      -3.12173694      -3.09104597      -3.12980967 </v>
    <v>       1.60546104       1.55509535      -7.87915185 </v>
    <v>       8.06172620      -7.94669698      -1.60403342 </v>
   </varray>
   <i name="volume">    470.79888527 </i>
   <varray name="rec_basis" >
    <v>      -0.13829187      -0.12944880      -0.05372754 </v>
    <v>       0.04229727       0.06422921      -0.10562188 </v>
    <v>       0.06206891      -0.06291737       0.00022930 </v>
   </varray>
  </crystal>
  <varray name="positions" >
   <v>       0.95732235       0.93421282       0.39995353 </v>
   <v>       0.64306653       0.26435329       0.39830141 </v>
   <v>       0.49242543       0.00353578      -0.00733981 </v>
   <v>      -0.01094915       0.00719414      -0.00085684 </v>
   <v>       0.09317786       0.21580892       0.78976524 </v>
   <v>       0.01426314       0.08499862       0.59549549 </v>
   <v>       0.90383075       0.79774509       0.20150138 </v>
   <v>       0.80472092       0.58895752       0.40069900 </v>
   <v>       0.73045745       0.46973769       0.20003496 </v>
   <v>       0.65603804       0.34520282      -0.00500683 </v>
   <v>       0.36454688       0.72554986       0.60256712 </v>
   <v>       0.14299421       0.27601235       0.39968442 </v>
   <v>       0.83185346       0.66576621       0.00314391 </v>
   <v>       0.91770758       0.87693951       0.79350368 </v>
   <v>       0.56176182       0.13728257       0.19347106 </v>
   <v>       0.40457708       0.79532443       0.19602698 </v>
   <v>       0.42910420       0.85542751       0.79376386 </v>
   <v>       0.29408711       0.60416746       0.40316639 </v>
   <v>       0.87323858       0.71261183       0.60204629 </v>
   <v>       0.46349599       0.92614136       0.40923953 </v>
   <v>       0.16460473       0.33982207      -0.00134394 </v>
   <v>       0.24756612       0.53823383       0.80218094 </v>
   <v>       0.33521611       0.38084167       0.60348988 </v>
   <v>       0.05698661       0.15074316       0.20548073 </v>
   <v>       0.74716166       0.52348895       0.81691471 </v>
   <v>       0.59197890       0.19730430       0.80130286 </v>
   <v>       0.52761781       0.05749198       0.60410452 </v>
   <v>       0.33613312       0.65225634      -0.00179532 </v>
   <v>       0.22501472       0.47284792       0.20050485 </v>
  </varray>
 </structure>
</modeling>
