Nb - Mo - Ta - Ti - V SQS               
           1
    -3.160000   -3.160000   -3.160000
     1.580000    1.580000   -7.900000
     7.900000   -7.900000   -1.580000
   Nb   Mo   Ta   Ti   V 
   6   6   6   6   5
Direct configuration=     1
   0.96666667  0.93333333  0.40000000
   0.63333333  0.26666667  0.40000000
   0.50000000  0.00000000  0.00000000
   0.00000000  0.00000000  0.00000000
   0.10000000  0.20000000  0.80000000
   0.03333333  0.06666667  0.60000000
   0.90000000  0.80000000  0.20000000
   0.80000000  0.60000000  0.40000000
   0.73333333  0.46666667  0.20000000
   0.66666667  0.33333333  0.00000000
   0.36666667  0.73333333  0.60000000
   0.13333333  0.26666667  0.40000000
   0.83333333  0.66666667  0.00000000
   0.93333333  0.86666667  0.80000000
   0.56666667  0.13333333  0.20000000
   0.40000000  0.80000000  0.20000000
   0.43333333  0.86666667  0.80000000
   0.30000000  0.60000000  0.40000000
   0.86666667  0.73333333  0.60000000
   0.46666667  0.93333333  0.40000000
   0.16666667  0.33333333  0.00000000
   0.26666667  0.53333333  0.80000000
   0.20000000  0.40000000  0.60000000
   0.06666667  0.13333333  0.20000000
   0.76666667  0.53333333  0.80000000
   0.60000000  0.20000000  0.80000000
   0.53333333  0.06666667  0.60000000
   0.33333333  0.66666667  0.00000000
   0.23333333  0.46666667  0.20000000
Nb - Mo - Ta - Ti - V SQS               
           1
    -3.148325   -3.130717   -3.151360
     1.569319    1.587881   -7.896077
     7.911998   -7.887837   -1.555821
   Nb   Mo   Ta   Ti   V 
   6   6   6   6   5
Direct configuration=     2
   0.96325013  0.93346266  0.39944511
   0.63241590  0.26784022  0.40236153
   0.49894738  0.00246022 -0.00134216
  -0.00166954  0.00077410  0.00078477
   0.10046789  0.20440129  0.79822025
   0.03241052  0.07055154  0.59852610
   0.90316772  0.79739162  0.20132260
   0.80294392  0.59524637  0.39952107
   0.73256037  0.46666124  0.19889829
   0.66363460  0.33875568 -0.00183509
   0.36955817  0.72981865  0.60036186
   0.13555611  0.27089750  0.39893876
   0.83457462  0.66251973  0.00170125
   0.93040260  0.86920135  0.79861546
   0.56587281  0.13493121  0.19708474
   0.40390327  0.79403416  0.19847816
   0.43789042  0.86086145  0.79697369
   0.29747869  0.60177537  0.40150204
   0.86621069  0.73406852  0.59960435
   0.46587281  0.93234823  0.40391154
   0.16873569  0.33517751  0.00000955
   0.26539425  0.53487955  0.80019273
   0.20179083  0.39689117  0.59894204
   0.06410659  0.13906648  0.20262529
   0.76696114  0.53117654  0.80277668
   0.59811762  0.19964064  0.80058128
   0.53262901  0.06521964  0.60191410
   0.33544254  0.66195036 -0.00041377
   0.23137326  0.46799700  0.20029780
Nb - Mo - Ta - Ti - V SQS               
           1
    -3.136638   -3.101404   -3.142710
     1.558626    1.595770   -7.892150
     7.924008   -7.875661   -1.531617
   Nb   Mo   Ta   Ti   V 
   6   6   6   6   5
Direct configuration=     3
   0.95980762  0.93359640  0.39888595
   0.63150247  0.26901976  0.40472594
   0.49788088  0.00492377 -0.00268404
  -0.00334721  0.00155271  0.00156942
   0.10092987  0.20880591  0.79644429
   0.03147377  0.07444139  0.59705415
   0.90636379  0.79477663  0.20264709
   0.80590711  0.59048111  0.39903932
   0.73177717  0.46665552  0.19779453
   0.66057209  0.34418779 -0.00366918
   0.37247204  0.72629526  0.60072322
   0.13778829  0.27512979  0.39788384
   0.83583314  0.65836725  0.00340083
   0.92744488  0.87174212  0.79722914
   0.56506000  0.13652881  0.19416734
   0.40782802  0.78805226  0.19695204
   0.44246669  0.85503755  0.79394241
   0.29494637  0.60355882  0.40300496
   0.86574962  0.73480491  0.59920862
   0.46509131  0.93136785  0.40782523
   0.17081847  0.33702134  0.00002360
   0.26411357  0.53643006  0.80038606
   0.20358999  0.39377399  0.59788129
   0.06153926  0.14481482  0.20525726
   0.76727065  0.52901978  0.80555413
   0.59622502  0.19928422  0.80116065
   0.53192882  0.06377400  0.60382776
   0.33756557  0.65722376 -0.00083116
   0.22940073  0.46933243  0.20059529
Nb - Mo - Ta - Ti - V SQS               
           1
    -3.160299   -3.117110   -3.173347
     1.572266    1.608073   -7.975131
     8.021712   -7.954649   -1.545814
   Nb   Mo   Ta   Ti   V 
   6   6   6   6   5
Direct configuration=     4
   0.95706471  0.93521092  0.39849979
   0.63273196  0.26988074  0.40616029
   0.49839604  0.00257537 -0.00506082
  -0.00412411  0.00302790  0.00153335
   0.10193653  0.21048646  0.79545978
   0.02802006  0.07916140  0.59558308
   0.90693592  0.79363010  0.20245612
   0.80686163  0.58845864  0.39922391
   0.73106267  0.46516903  0.19865624
   0.65871555  0.34683288 -0.00594822
   0.37622034  0.72200106  0.60080529
   0.13821037  0.27623518  0.39785916
   0.83668486  0.66096522  0.00319681
   0.92626380  0.87417506  0.79676191
   0.56443769  0.13773868  0.19385518
   0.40924206  0.78765704  0.19628857
   0.44062300  0.85234816  0.79297379
   0.29578440  0.60405696  0.40469284
   0.86652411  0.73460262  0.59881820
   0.46446152  0.92973037  0.40995421
   0.17282700  0.33873404 -0.00007209
   0.26240674  0.53711636  0.80038389
   0.20635816  0.39113433  0.59632098
   0.05967072  0.14880012  0.20711495
   0.76754184  0.52651553  0.80874360
   0.59449008  0.19932667  0.80090461
   0.53228372  0.06182663  0.60636470
   0.33982116  0.65188365 -0.00194468
   0.22854748  0.47071888  0.20041455
Nb - Mo - Ta - Ti - V SQS               
           1
    -3.149855   -3.110177   -3.159824
     1.566245    1.602642   -7.938503
     7.978586   -7.919783   -1.539547
   Nb   Mo   Ta   Ti   V 
   6   6   6   6   5
Direct configuration=     5
   0.95826820  0.93450385  0.39866901
   0.63219174  0.26950557  0.40553395
   0.49817190  0.00360116 -0.00402353
  -0.00378289  0.00238285  0.00154933
   0.10149705  0.20975235  0.79588941
   0.02953765  0.07709660  0.59622618
   0.90668485  0.79413135  0.20253931
   0.80644216  0.58934298  0.39914304
   0.73137430  0.46581846  0.19828017
   0.65953304  0.34567540 -0.00495286
   0.37457534  0.72387954  0.60076847
   0.13802583  0.27575236  0.39786990
   0.83631280  0.65983035  0.00328581
   0.92678308  0.87311116  0.79696623
   0.56471134  0.13720957  0.19399163
   0.40862277  0.78783030  0.19657787
   0.44143118  0.85352211  0.79339687
   0.29541535  0.60384020  0.40395590
   0.86618495  0.73469132  0.59898845
   0.46473454  0.93044619  0.40902492
   0.17194735  0.33798666 -0.00003066
   0.26315524  0.53681556  0.80038523
   0.20514534  0.39228883  0.59700138
   0.06048939  0.14705816  0.20630462
   0.76741835  0.52761089  0.80735116
   0.59525092  0.19930713  0.80101674
   0.53212450  0.06267850  0.60525711
   0.33883142  0.65421805 -0.00145934
   0.22892229  0.47011253  0.20049369
Nb - Mo - Ta - Ti - V SQS               
           1
    -3.137441   -3.097918   -3.155164
     1.566160    1.589307   -7.925958
     7.979493   -7.910213   -1.548222
   Nb   Mo   Ta   Ti   V 
   6   6   6   6   5
Direct configuration=     6
   0.95657174  0.93613022  0.39834973
   0.63394399  0.26990962  0.40614913
   0.49938691  0.00024195 -0.00613954
  -0.00464034  0.00388744  0.00133751
   0.10274704  0.20978917  0.79557506
   0.02603247  0.08062462  0.59523691
   0.90593600  0.79417247  0.20182671
   0.80670968  0.58921086  0.39922602
   0.73052954  0.46513450  0.19953784
   0.65911324  0.34636442 -0.00668013
   0.37737244  0.72060029  0.60078254
   0.13775250  0.27546860  0.39822125
   0.83682956  0.66404485  0.00249987
   0.92557371  0.87548720  0.79666771
   0.56473673  0.13762509  0.19455251
   0.40897790  0.78930804  0.19648795
   0.43814153  0.85251343  0.79331832
   0.29704857  0.60413321  0.40486076
   0.86764131  0.73416658  0.59871314
   0.46425938  0.92860083  0.41006951
   0.17312325  0.33939904 -0.00009741
   0.26116646  0.53697312  0.80019387
   0.20814480  0.39018664  0.59540229
   0.05919200  0.14954662  0.20749595
   0.76720909  0.52565062  0.81063860
   0.59396906  0.19905977  0.80047497
   0.53273593  0.06072892  0.60757681
   0.34104799  0.64982828 -0.00264308
   0.22874754  0.47121361  0.20036519
Nb - Mo - Ta - Ti - V SQS               
           1
    -3.136411   -3.096902   -3.154778
     1.566153    1.588202   -7.924918
     7.979568   -7.909420   -1.548941
   Nb   Mo   Ta   Ti   V 
   6   6   6   6   5
Direct configuration=     7
   0.95643040  0.93626552  0.39832313
   0.63408981  0.26994300  0.40620014
   0.49948815 -0.00003701 -0.00631487
  -0.00471185  0.00401256  0.00131983
   0.10285103  0.20979219  0.79554897
   0.02574040  0.08091817  0.59515459
   0.90587362  0.79417603  0.20176758
   0.80673196  0.58919985  0.39923292
   0.73045939  0.46507756  0.19964223
   0.65907812  0.34642193 -0.00682348
   0.37760549  0.72032759  0.60078394
   0.13772980  0.27544499  0.39825042
   0.83687213  0.66439515  0.00243437
   0.92547284  0.87568477  0.79664278
   0.56473885  0.13765955  0.19459902
   0.40900732  0.78943083  0.19648039
   0.43786786  0.85242984  0.79331187
   0.29718452  0.60415733  0.40493582
   0.86776253  0.73412292  0.59869034
   0.46422008  0.92844738  0.41015631
   0.17322097  0.33951633 -0.00010305
   0.26100094  0.53698637  0.80017798
   0.20839447  0.39001194  0.59526976
   0.05908390  0.14975335  0.20759462
   0.76719209  0.52548731  0.81091148
   0.59386238  0.19903937  0.80043004
   0.53278715  0.06056657  0.60776941
   0.34123274  0.64946348 -0.00274099
   0.22873289  0.47130514  0.20035445
Nb - Mo - Ta - Ti - V SQS               
           1
    -3.133340   -3.099148   -3.155669
     1.569502    1.579585   -7.922421
     7.987639   -7.919550   -1.560859
   Nb   Mo   Ta   Ti   V 
   6   6   6   6   5
Direct configuration=     8
   0.95638409  0.93655754  0.39836735
   0.63434167  0.26980457  0.40646209
   0.49901203  0.00021088 -0.00644560
  -0.00523195  0.00469233  0.00130365
   0.10293239  0.20959862  0.79563621
   0.02397315  0.08149223  0.59551041
   0.90535622  0.79537132  0.20144232
   0.80667492  0.59040493  0.39940336
   0.73002468  0.46670308  0.19970934
   0.66044070  0.34541246 -0.00667864
   0.37837191  0.71931023  0.60094783
   0.13802679  0.27479239  0.39843495
   0.83776834  0.66426458  0.00214164
   0.92362172  0.87680665  0.79585528
   0.56509914  0.13709554  0.19459283
   0.40831924  0.79059428  0.19684515
   0.43759133  0.85236127  0.79356035
   0.29761826  0.60433273  0.40413372
   0.86930048  0.73325876  0.59886884
   0.46423786  0.92749070  0.41035121
   0.17247750  0.34006784 -0.00010607
   0.25988221  0.53626160  0.79962947
   0.21046506  0.38918728  0.59481558
   0.05886574  0.15013953  0.20756946
   0.76623904  0.52497612  0.81244082
   0.59367799  0.19869941  0.79957068
   0.53283233  0.05987742  0.60830885
   0.34256477  0.64882271 -0.00322420
   0.22913241  0.47141302  0.20055311
Nb - Mo - Ta - Ti - V SQS               
           1
    -3.128686   -3.102552   -3.157019
     1.574576    1.566529   -7.918636
     7.999868   -7.934899   -1.578918
   Nb   Mo   Ta   Ti   V 
   6   6   6   6   5
Direct configuration=     9
   0.95631363  0.93700025  0.39843396
   0.63472312  0.26959426  0.40685858
   0.49829050  0.00058699 -0.00664351
  -0.00602061  0.00572313  0.00127864
   0.10305573  0.20930499  0.79576842
   0.02129420  0.08236235  0.59604920
   0.90457163  0.79718424  0.20094894
   0.80658731  0.59223190  0.39965998
   0.72936456  0.46916775  0.19980929
   0.66250613  0.34388145 -0.00645895
   0.37953393  0.71776731  0.60119666
   0.13847711  0.27380259  0.39871483
   0.83912691  0.66406691  0.00169829
   0.92081668  0.87850909  0.79466304
   0.56564557  0.13624033  0.19458392
   0.40727518  0.79235794  0.19739623
   0.43717202  0.85225696  0.79393664
   0.29827640  0.60459977  0.40291932
   0.87163151  0.73194802  0.59913921
   0.46426530  0.92603985  0.41064727
   0.17135042  0.34090417 -0.00011088
   0.25818816  0.53516358  0.79880069
   0.21360402  0.38793727  0.59412807
   0.05853487  0.15072514  0.20753105
   0.76479329  0.52419894  0.81475656
   0.59339990  0.19818521  0.79827051
   0.53290064  0.05883170  0.60912608
   0.34458440  0.64785167 -0.00395548
   0.22973750  0.47157625  0.20085345
Nb - Mo - Ta - Ti - V SQS               
           1
    -3.127220   -3.103133   -3.157101
     1.572408    1.562206   -7.912889
     8.001752   -7.940372   -1.580622
   Nb   Mo   Ta   Ti   V 
   6   6   6   6   5
Direct configuration=    10
   0.95642318  0.93684687  0.39875562
   0.63432451  0.26971508  0.40635285
   0.49770276  0.00130740 -0.00641778
  -0.00618572  0.00556024  0.00102957
   0.10269326  0.20973015  0.79582703
   0.02086175  0.08199033  0.59598281
   0.90466336  0.79806779  0.20090696
   0.80715426  0.59244973  0.39952668
   0.73005693  0.46979335  0.19989978
   0.66200640  0.34398917 -0.00553810
   0.37959069  0.71667685  0.60127456
   0.13847826  0.27437343  0.39870640
   0.83832945  0.66461288  0.00200665
   0.92105517  0.87830887  0.79428048
   0.56575017  0.13673546  0.19471263
   0.40725312  0.79331784  0.19697018
   0.43646511  0.85226879  0.79410623
   0.29728813  0.60476068  0.40256185
   0.87320730  0.73048448  0.59951568
   0.46471782  0.92581090  0.41116383
   0.17117553  0.34068049  0.00006944
   0.25733691  0.53459517  0.79796736
   0.21699039  0.38702628  0.59375164
   0.05811972  0.15138207  0.20751691
   0.76318452  0.52384797  0.81582892
   0.59308268  0.19795692  0.79720207
   0.53223936  0.05798143  0.60904611
   0.34603163  0.64790062 -0.00391893
   0.23000335  0.47182877  0.20091259
Nb - Mo - Ta - Ti - V SQS               
           1
    -3.125451   -3.103835   -3.157200
     1.569792    1.556989   -7.905953
     8.004026   -7.946978   -1.582679
   Nb   Mo   Ta   Ti   V 
   6   6   6   6   5
Direct configuration=    11
   0.95655531  0.93666161  0.39914367
   0.63384360  0.26986100  0.40574279
   0.49699268  0.00217777 -0.00614550
  -0.00638476  0.00536343  0.00072915
   0.10225541  0.21024380  0.79589773
   0.02034003  0.08154090  0.59590284
   0.90477352  0.79913521  0.20085614
   0.80783855  0.59271286  0.39936574
   0.73089219  0.47054912  0.20000874
   0.66140251  0.34411944 -0.00442715
   0.37965988  0.71535945  0.60136870
   0.13847928  0.27506308  0.39869614
   0.83736629  0.66527253  0.00237869
   0.92134344  0.87806693  0.79381896
   0.56587603  0.13733365  0.19486781
   0.40722614  0.79447746  0.19645606
   0.43561169  0.85228314  0.79431094
   0.29609532  0.60495508  0.40213073
   0.87511015  0.72871634  0.59996984
   0.46526388  0.92553434  0.41178697
   0.17096446  0.34041028  0.00028704
   0.25631030  0.53390841  0.79696227
   0.22107887  0.38592552  0.59329714
   0.05761817  0.15217572  0.20749981
   0.76124213  0.52342414  0.81712290
   0.59270061  0.19768101  0.79591321
   0.53144176  0.05695424  0.60894987
   0.34777850  0.64795971 -0.00387507
   0.23032404  0.47213384  0.20098384
Nb - Mo - Ta - Ti - V SQS               
           1
    -3.130632   -3.107090   -3.162359
     1.572270    1.557902   -7.918040
     8.020264   -7.957939   -1.585624
   Nb   Mo   Ta   Ti   V 
   6   6   6   6   5
Direct configuration=    12
   0.95693890  0.93665910  0.39933358
   0.63437694  0.26994663  0.40527490
   0.49638254  0.00272796 -0.00635792
  -0.00640186  0.00553912  0.00051274
   0.10146060  0.21053269  0.79541465
   0.01987074  0.08117237  0.59563886
   0.90514018  0.79961159  0.20090900
   0.80745150  0.59235317  0.39925820
   0.73145408  0.47071806  0.20020450
   0.66082421  0.34473661 -0.00394244
   0.37943297  0.71418736  0.60142367
   0.13781858  0.27549763  0.39869689
   0.83768338  0.66580438  0.00263897
   0.92147942  0.87710269  0.79405167
   0.56535476  0.13825984  0.19517982
   0.40761984  0.79511025  0.19638168
   0.43568366  0.85227475  0.79451292
   0.29591811  0.60556953  0.40180183
   0.87584700  0.72695445  0.60045933
   0.46547098  0.92571484  0.41205296
   0.17056984  0.34048310  0.00047516
   0.25596938  0.53336757  0.79674153
   0.22599753  0.38482533  0.59317739
   0.05775663  0.15276036  0.20756122
   0.75928148  0.52342045  0.81787107
   0.59209508  0.19751899  0.79501222
   0.53089635  0.05583674  0.60849509
   0.34727653  0.64852511 -0.00360023
   0.23035067  0.47278932  0.20082074
Nb - Mo - Ta - Ti - V SQS               
           1
    -3.130805   -3.107199   -3.162532
     1.572352    1.557932   -7.918443
     8.020806   -7.958305   -1.585722
   Nb   Mo   Ta   Ti   V 
   6   6   6   6   5
Direct configuration=    13
   0.95695169  0.93665902  0.39933991
   0.63439470  0.26994948  0.40525931
   0.49636220  0.00274630 -0.00636500
  -0.00640244  0.00554498  0.00050553
   0.10143410  0.21054232  0.79539855
   0.01985509  0.08116009  0.59563007
   0.90515240  0.79962747  0.20091076
   0.80743860  0.59234119  0.39925461
   0.73147281  0.47072369  0.20021103
   0.66080494  0.34475718 -0.00392629
   0.37942542  0.71414830  0.60142550
   0.13779656  0.27551212  0.39869691
   0.83769395  0.66582210  0.00264764
   0.92148396  0.87707055  0.79405943
   0.56533739  0.13829070  0.19519021
   0.40763295  0.79513134  0.19637920
   0.43568607  0.85227447  0.79451965
   0.29591219  0.60559001  0.40179087
   0.87587158  0.72689572  0.60047564
   0.46547789  0.92572085  0.41206183
   0.17055669  0.34048552  0.00048142
   0.25595801  0.53334955  0.79673418
   0.22616147  0.38478865  0.59317343
   0.05776125  0.15277985  0.20756326
   0.75921614  0.52342032  0.81789599
   0.59207488  0.19751360  0.79498219
   0.53087817  0.05579950  0.60847994
   0.34725980  0.64854396 -0.00359107
   0.23035155  0.47281117  0.20081531
Nb - Mo - Ta - Ti - V SQS               
           1
    -3.130220   -3.104933   -3.161193
     1.572593    1.557028   -7.915848
     8.020755   -7.953572   -1.585433
   Nb   Mo   Ta   Ti   V 
   6   6   6   6   5
Direct configuration=    14
   0.95717584  0.93667310  0.39937591
   0.63475020  0.26998880  0.40504172
   0.49620098  0.00297699 -0.00653335
  -0.00649117  0.00575634  0.00043058
   0.10093994  0.21062317  0.79504950
   0.01958074  0.08091726  0.59551632
   0.90533235  0.79982293  0.20093776
   0.80714731  0.59207650  0.39917382
   0.73165626  0.47084415  0.20029109
   0.66053930  0.34517176 -0.00383259
   0.37917334  0.71362313  0.60146429
   0.13750746  0.27567816  0.39872148
   0.83794555  0.66603662  0.00279220
   0.92154642  0.87653722  0.79425944
   0.56504068  0.13881435  0.19531912
   0.40792899  0.79536244  0.19643234
   0.43576218  0.85222791  0.79459144
   0.29598110  0.60588507  0.40163258
   0.87601766  0.72594602  0.60073926
   0.46550151  0.92586808  0.41209423
   0.17028947  0.34063142  0.00055717
   0.25583827  0.53311104  0.79684064
   0.22924354  0.38414975  0.59315462
   0.05791581  0.15303643  0.20762559
   0.75820988  0.52352404  0.81825280
   0.59167881  0.19736695  0.79457078
   0.53068049  0.05516433  0.60820314
   0.34663901  0.64892852 -0.00341365
   0.23026808  0.47325753  0.20071177
Nb - Mo - Ta - Ti - V SQS               
           1
    -3.128466   -3.098137   -3.157177
     1.573313    1.554317   -7.908063
     8.020602   -7.939373   -1.584565
   Nb   Mo   Ta   Ti   V 
   6   6   6   6   5
Direct configuration=    15
   0.95784867  0.93671533  0.39948402
   0.63581676  0.27010693  0.40438883
   0.49571684  0.00366941 -0.00703867
  -0.00675758  0.00639070  0.00020558
   0.09945619  0.21086612  0.79400186
   0.01875708  0.08018867  0.59517496
   0.90587252  0.80040946  0.20101878
   0.80627285  0.59128229  0.39893133
   0.73220703  0.47120555  0.20053138
   0.65974225  0.34641588 -0.00355159
   0.37841675  0.71204709  0.60158074
   0.13663988  0.27617646  0.39879506
   0.83870100  0.66668024  0.00322605
   0.92173417  0.87493656  0.79485980
   0.56415048  0.14038570  0.19570575
   0.40881763  0.79605589  0.19659188
   0.43599075  0.85208815  0.79480691
   0.29618765  0.60677065  0.40115754
   0.87645642  0.72309576  0.60153060
   0.46557251  0.92630987  0.41219142
   0.16948762  0.34106920  0.00078436
   0.25547904  0.53239519  0.79716013
   0.23849369  0.38223219  0.59309930
   0.05837988  0.15380636  0.20781264
   0.75519045  0.52383507  0.81932321
   0.59048927  0.19692720  0.79333609
   0.53008657  0.05325844  0.60737258
   0.34477621  0.65008250 -0.00288150
   0.23001745  0.47459713  0.20040094
Nb - Mo - Ta - Ti - V SQS               
           1
    -3.129954   -3.097819   -3.155541
     1.574828    1.554996   -7.905547
     8.023158   -7.937073   -1.583956
   Nb   Mo   Ta   Ti   V 
   6   6   6   6   5
Direct configuration=    16
   0.95791750  0.93670311  0.39950384
   0.63588588  0.27006280  0.40429797
   0.49577801  0.00403751 -0.00709463
  -0.00707489  0.00692031  0.00018382
   0.09868811  0.21091212  0.79355286
   0.01824375  0.07980806  0.59525419
   0.90586030  0.80077066  0.20098084
   0.80630152  0.59118815  0.39893457
   0.73228490  0.47160651  0.20049344
   0.65949623  0.34666095 -0.00369514
   0.37790298  0.71174905  0.60171228
   0.13715338  0.27608334  0.39893027
   0.83836186  0.66680373  0.00343436
   0.92208472  0.87458761  0.79493599
   0.56428823  0.14066986  0.19553483
   0.40880840  0.79649049  0.19665836
   0.43556349  0.85191711  0.79475963
   0.29627612  0.60666130  0.40117652
   0.87641235  0.72185892  0.60180556
   0.46551020  0.92647676  0.41196041
   0.16920282  0.34126936  0.00073785
   0.25517623  0.53219796  0.79765226
   0.24296084  0.38157455  0.59323976
   0.05853430  0.15389486  0.20782371
   0.75451948  0.52406197  0.81951473
   0.58998915  0.19665556  0.79296476
   0.53007610  0.05258550  0.60711698
   0.34405539  0.65064770 -0.00272572
   0.22974264  0.47514419  0.20035571
Nb - Mo - Ta - Ti - V SQS               
           1
    -3.134416   -3.096865   -3.150633
     1.579372    1.557030   -7.897998
     8.030828   -7.930175   -1.582128
   Nb   Mo   Ta   Ti   V 
   6   6   6   6   5
Direct configuration=    17
   0.95812401  0.93666648  0.39956331
   0.63609299  0.26993046  0.40402543
   0.49596184  0.00514205 -0.00726253
  -0.00802611  0.00850922  0.00011833
   0.09638319  0.21104990  0.79220562
   0.01670356  0.07866568  0.59549175
   0.90582406  0.80185444  0.20086697
   0.80638740  0.59090573  0.39894431
   0.73251894  0.47280966  0.20037959
   0.65875826  0.34739619 -0.00412590
   0.37636170  0.71085440  0.60210678
   0.13869394  0.27580419  0.39933610
   0.83734511  0.66717393  0.00405915
   0.92313600  0.87354078  0.79516473
   0.56470148  0.14152265  0.19502207
   0.40878141  0.79779445  0.19685772
   0.43428151  0.85140368  0.79461766
   0.29654140  0.60633325  0.40123349
   0.87627912  0.71814763  0.60263060
   0.46532303  0.92697760  0.41126732
   0.16834864  0.34186978  0.00059820
   0.25426861  0.53160570  0.79912855
   0.25636068  0.37960410  0.59366274
   0.05899767  0.15416049  0.20785694
   0.75250744  0.52474222  0.82008903
   0.58848779  0.19584039  0.79185066
   0.53004330  0.05056650  0.60635029
   0.34189414  0.65234298 -0.00225873
   0.22891889  0.47678547  0.20021983
Nb - Mo - Ta - Ti - V SQS               
           1
    -3.143340   -3.094958   -3.140817
     1.588460    1.561099   -7.882900
     8.046167   -7.916378   -1.578472
   Nb   Mo   Ta   Ti   V 
   6   6   6   6   5
Direct configuration=    18
   0.95853707  0.93659338  0.39968239
   0.63650566  0.26966625  0.40348054
   0.49633158  0.00735260 -0.00759855
  -0.00992427  0.01168739 -0.00001378
   0.09176925  0.21132417  0.78950965
   0.01362193  0.07637756  0.59596616
   0.90575393  0.80402310  0.20063888
   0.80655844  0.59034071  0.39896393
   0.73298955  0.47521752  0.20015169
   0.65728281  0.34886692 -0.00498812
   0.37327916  0.70906181  0.60289498
   0.14177527  0.27524714  0.40014886
   0.83531560  0.66791263  0.00530788
   0.92523629  0.87144723  0.79562322
   0.56552787  0.14323017  0.19399662
   0.40873162  0.80040333  0.19725600
   0.43171622  0.85037485  0.79433304
   0.29707123  0.60567710  0.40134772
   0.87600652  0.71072041  0.60428167
   0.46494724  0.92798032  0.40988094
   0.16664164  0.34307024  0.00031816
   0.25245831  0.53041773  0.80208057
   0.28315080  0.37567819  0.59451833
   0.05992501  0.15469258  0.20792364
   0.74848840  0.52610010  0.82123601
   0.58547911  0.19420862  0.78962179
   0.52996937  0.04652744  0.60481757
   0.33757893  0.65573183 -0.00132678
   0.22727546  0.48006868  0.19994701
Nb - Mo - Ta - Ti - V SQS               
           1
    -3.136747   -3.096367   -3.148069
     1.581745    1.558093   -7.894054
     8.034834   -7.926571   -1.581173
   Nb   Mo   Ta   Ti   V 
   6   6   6   6   5
Direct configuration=    19
   0.95823182  0.93664714  0.39959419
   0.63620307  0.26986078  0.40388281
   0.49605534  0.00571724 -0.00735000
  -0.00852821  0.00933881  0.00008548
   0.09518411  0.21112347  0.79150364
   0.01590055  0.07807298  0.59561671
   0.90580227  0.80241923  0.20080791
   0.80643315  0.59075840  0.39894922
   0.73263811  0.47343625  0.20032037
   0.65837218  0.34777999 -0.00435009
   0.37555656  0.71039106  0.60231383
   0.13949841  0.27565683  0.39954678
   0.83680915  0.66736935  0.00438657
   0.92368790  0.87299381  0.79528299
   0.56491745  0.14196579  0.19475415
   0.40876221  0.79847443  0.19696239
   0.43361342  0.85113789  0.79454435
   0.29668087  0.60616192  0.40126292
   0.87621700  0.71621455  0.60306040
   0.46522703  0.92723799  0.41090554
   0.16790076  0.34218388  0.00052616
   0.25378850  0.53130047  0.79990041
   0.26337207  0.37855657  0.59387201
   0.05923898  0.15429827  0.20787403
   0.75145028  0.52510075  0.82039100
   0.58771077  0.19541631  0.79126949
   0.53003630  0.04951312  0.60594898
   0.34075629  0.65323067 -0.00201233
   0.22848364  0.47764207  0.20015012
Nb - Mo - Ta - Ti - V SQS               
           1
    -3.141869   -3.099450   -3.149712
     1.581154    1.559331   -7.894703
     8.041340   -7.930817   -1.578992
   Nb   Mo   Ta   Ti   V 
   6   6   6   6   5
Direct configuration=    20
   0.95808161  0.93627285  0.39998627
   0.63755889  0.26905553  0.40332929
   0.49552490  0.00640720 -0.00772856
  -0.00856446  0.01014384 -0.00024004
   0.09370850  0.21140265  0.79083285
   0.01541118  0.07740102  0.59564265
   0.90571871  0.80290836  0.20088385
   0.80720074  0.59077509  0.39907936
   0.73256108  0.47391379  0.20070651
   0.65799534  0.34805999 -0.00461788
   0.37384846  0.71077686  0.60260112
   0.14039468  0.27533644  0.39973293
   0.83557554  0.66794724  0.00445663
   0.92219410  0.87297508  0.79526560
   0.56490634  0.14221202  0.19433308
   0.40822979  0.79922756  0.19681130
   0.43338478  0.85120210  0.79448532
   0.29629567  0.60601388  0.40137107
   0.87630220  0.71426209  0.60319756
   0.46514665  0.92734524  0.41036582
   0.16740016  0.34211322  0.00038941
   0.25285758  0.53124775  0.80063857
   0.27129991  0.37797087  0.59505644
   0.05943617  0.15464322  0.20768961
   0.75149343  0.52504293  0.82019019
   0.58740037  0.19490997  0.79128424
   0.53005643  0.04871429  0.60587938
   0.34020838  0.65386660 -0.00186162
   0.22837290  0.47785232  0.20023906
Nb - Mo - Ta - Ti - V SQS               
           1
    -3.150823   -3.104839   -3.152584
     1.580120    1.561494   -7.895837
     8.052711   -7.938239   -1.575181
   Nb   Mo   Ta   Ti   V 
   6   6   6   6   5
Direct configuration=    21
   0.95781968  0.93561882  0.40067098
   0.63992532  0.26764860  0.40236262
   0.49459863  0.00761262 -0.00838977
  -0.00862796  0.01155060 -0.00080847
   0.09113190  0.21188966  0.78966092
   0.01455684  0.07622648  0.59568771
   0.90557293  0.80376318  0.20101659
   0.80854087  0.59080465  0.39930684
   0.73242695  0.47474849  0.20138107
   0.65733725  0.34854907 -0.00508564
   0.37086680  0.71145050  0.60310263
   0.14195948  0.27477699  0.40005822
   0.83342207  0.66895667  0.00457886
   0.91958625  0.87294171  0.79523491
   0.56488663  0.14264217  0.19359765
   0.40730024  0.80054345  0.19654743
   0.43298557  0.85131420  0.79438218
   0.29562328  0.60575503  0.40155985
   0.87645089  0.71085000  0.60343678
   0.46500589  0.92753243  0.40942310
   0.16652612  0.34198945  0.00015042
   0.25123299  0.53115551  0.80192767
   0.28514093  0.37695112  0.59712685
   0.05978028  0.15524607  0.20736760
   0.75156860  0.52494183  0.81983945
   0.58685845  0.19402495  0.79130983
   0.53009145  0.04731822  0.60575765
   0.33925201  0.65497780 -0.00159835
   0.22817965  0.47821975  0.20039444
Nb - Mo - Ta - Ti - V SQS               
           1
    -3.150436   -3.103836   -3.151274
     1.578609    1.560452   -7.890711
     8.050263   -7.935184   -1.573550
   Nb   Mo   Ta   Ti   V 
   6   6   6   6   5
Direct configuration=    22
   0.95779004  0.93543701  0.40080247
   0.64055649  0.26727902  0.40207181
   0.49435989  0.00785260 -0.00856138
  -0.00870262  0.01181974 -0.00096772
   0.09057793  0.21201059  0.78940033
   0.01447451  0.07597857  0.59567929
   0.90552217  0.80392184  0.20105037
   0.80874432  0.59077711  0.39934818
   0.73237549  0.47493546  0.20155133
   0.65717580  0.34870357 -0.00518473
   0.37002720  0.71175774  0.60321632
   0.14238112  0.27468473  0.40015586
   0.83292240  0.66919651  0.00460544
   0.91897370  0.87297313  0.79517403
   0.56485076  0.14272635  0.19343815
   0.40705095  0.80079986  0.19645721
   0.43264749  0.85138256  0.79434985
   0.29557700  0.60567145  0.40163211
   0.87649700  0.71001201  0.60346603
   0.46494128  0.92754903  0.40920117
   0.16624612  0.34196991  0.00008352
   0.25082148  0.53122819  0.80221704
   0.28877840  0.37675457  0.59771921
   0.05981086  0.15542378  0.20727515
   0.75159880  0.52486800  0.81973067
   0.58677836  0.19380423  0.79144995
   0.53005525  0.04705626  0.60573045
   0.33901825  0.65519117 -0.00153148
   0.22814956  0.47823499  0.20043939
Nb - Mo - Ta - Ti - V SQS               
           1
    -3.149573   -3.101595   -3.148348
     1.575230    1.558123   -7.879252
     8.044790   -7.928356   -1.569904
   Nb   Mo   Ta   Ti   V 
   6   6   6   6   5
Direct configuration=    23
   0.95772385  0.93503034  0.40109649
   0.64196777  0.26645232  0.40142152
   0.49382597  0.00838936 -0.00894516
  -0.00886966  0.01242178 -0.00132382